phonopy:
  version: "2.21.0"
  frequency_unit_conversion_factor: 15.633302
  symmetry_tolerance: 1.00000e-04

space_group:
  type: "R3m"
  number: 160
  Hall_symbol: "R 3 -2\""

primitive_matrix:
- [  0.666666666666667, -0.333333333333333, -0.333333333333333 ]
- [  0.333333333333333,  0.333333333333333, -0.666666666666667 ]
- [  0.333333333333333,  0.333333333333333,  0.333333333333333 ]

supercell_matrix:
- [   3,   3,   0 ]
- [  -2,   2,   0 ]
- [   0,   0,   4 ]

primitive_cell:
  lattice:
  - [     4.343226382153292,    -2.507562920887686,     1.772068945893130 ] # a
  - [    -0.000000000000000,     5.015125841775373,     1.772068945893129 ] # b
  - [    -4.343226382153293,    -2.507562920887688,     1.772068945893130 ] # c
  points:
  - symbol: Ag # 1
    coordinates: [  0.005934385431892,  0.005934385431892,  0.005934385431892 ]
    mass: 107.868200
  - symbol: Te # 2
    coordinates: [  0.505981195039883,  0.006002214488341,  0.505981195039883 ]
    mass: 127.600000
  - symbol: Te # 3
    coordinates: [  0.505981195039883,  0.505981195039881,  0.006002214488343 ]
    mass: 127.600000
  - symbol: Te # 4
    coordinates: [  0.006002214488343,  0.505981195039880,  0.505981195039883 ]
    mass: 127.600000
  reciprocal_lattice: # without 2pi
  - [     0.115121791038695,    -0.066465597045783,     0.188104043076796 ] # a*
  - [    -0.000000000000000,     0.132931194091565,     0.188104043076796 ] # b*
  - [    -0.115121791038695,    -0.066465597045783,     0.188104043076796 ] # c*

unit_cell:
  lattice:
  - [     4.343226382153292,    -7.522688762663062,    -0.000000000000000 ] # a
  - [     4.343226382153293,     7.522688762663062,     0.000000000000000 ] # b
  - [     0.000000000000000,     0.000000000000000,     5.316206837679389 ] # c
  points:
  - symbol: Ag # 1
    coordinates: [  0.000000000000000,  0.000000000000000,  0.005934385431892 ]
    mass: 107.868200
    reduced_to: 1
  - symbol: Ag # 2
    coordinates: [  0.666666666666664,  0.333333333333336,  0.339267718765220 ]
    mass: 107.868200
    reduced_to: 1
  - symbol: Ag # 3
    coordinates: [  0.333333333333336,  0.666666666666664,  0.672601052098556 ]
    mass: 107.868200
    reduced_to: 1
  - symbol: Te # 4
    coordinates: [  0.166659660183847,  0.833340339816153,  0.339321534856036 ]
    mass: 127.600000
    reduced_to: 4
  - symbol: Te # 5
    coordinates: [  0.166659660183847,  0.333319320367693,  0.339321534856036 ]
    mass: 127.600000
    reduced_to: 5
  - symbol: Te # 6
    coordinates: [  0.666680679632307,  0.833340339816153,  0.339321534856036 ]
    mass: 127.600000
    reduced_to: 6
  - symbol: Te # 7
    coordinates: [  0.833326326850518,  0.166673673149482,  0.672654868189372 ]
    mass: 127.600000
    reduced_to: 4
  - symbol: Te # 8
    coordinates: [  0.833326326850518,  0.666652653701029,  0.672654868189372 ]
    mass: 127.600000
    reduced_to: 5
  - symbol: Te # 9
    coordinates: [  0.333347346298971,  0.166673673149482,  0.672654868189372 ]
    mass: 127.600000
    reduced_to: 6
  - symbol: Te # 10
    coordinates: [  0.499992993517182,  0.500007006482818,  0.005988201522707 ]
    mass: 127.600000
    reduced_to: 4
  - symbol: Te # 11
    coordinates: [  0.499992993517182,  0.999985987034365,  0.005988201522707 ]
    mass: 127.600000
    reduced_to: 5
  - symbol: Te # 12
    coordinates: [  0.000014012965635,  0.500007006482818,  0.005988201522707 ]
    mass: 127.600000
    reduced_to: 6

supercell:
  lattice:
  - [     4.343226382153290,   -37.613443813315314,    -0.000000000000001 ] # a
  - [    21.716131910766460,    -7.522688762663062,    -0.000000000000000 ] # b
  - [     0.000000000000000,     0.000000000000000,    21.264827350717557 ] # c
  points:
  - symbol: Ag # 1
    coordinates: [  0.000000000000000,  0.000000000000000,  0.001483596357973 ]
    mass: 107.868200
    reduced_to: 1
  - symbol: Ag # 2
    coordinates: [  0.166666666666667,  0.166666666666667,  0.001483596357973 ]
    mass: 107.868200
    reduced_to: 1
  - symbol: Ag # 3
    coordinates: [  0.333333333333333,  0.333333333333333,  0.001483596357973 ]
    mass: 107.868200
    reduced_to: 1
  - symbol: Ag # 4
    coordinates: [  0.500000000000000,  0.500000000000000,  0.001483596357973 ]
    mass: 107.868200
    reduced_to: 1
  - symbol: Ag # 5
    coordinates: [  0.666666666666667,  0.666666666666667,  0.001483596357973 ]
    mass: 107.868200
    reduced_to: 1
  - symbol: Ag # 6
    coordinates: [  0.833333333333333,  0.833333333333333,  0.001483596357973 ]
    mass: 107.868200
    reduced_to: 1
  - symbol: Ag # 7
    coordinates: [  0.750000000000000,  0.250000000000000,  0.001483596357973 ]
    mass: 107.868200
    reduced_to: 1
  - symbol: Ag # 8
    coordinates: [  0.916666666666667,  0.416666666666667,  0.001483596357973 ]
    mass: 107.868200
    reduced_to: 1
  - symbol: Ag # 9
    coordinates: [  0.083333333333333,  0.583333333333333,  0.001483596357973 ]
    mass: 107.868200
    reduced_to: 1
  - symbol: Ag # 10
    coordinates: [  0.250000000000000,  0.750000000000000,  0.001483596357973 ]
    mass: 107.868200
    reduced_to: 1
  - symbol: Ag # 11
    coordinates: [  0.416666666666667,  0.916666666666667,  0.001483596357973 ]
    mass: 107.868200
    reduced_to: 1
  - symbol: Ag # 12
    coordinates: [  0.583333333333333,  0.083333333333333,  0.001483596357973 ]
    mass: 107.868200
    reduced_to: 1
  - symbol: Ag # 13
    coordinates: [  0.000000000000000,  0.000000000000000,  0.251483596357973 ]
    mass: 107.868200
    reduced_to: 1
  - symbol: Ag # 14
    coordinates: [  0.166666666666667,  0.166666666666667,  0.251483596357973 ]
    mass: 107.868200
    reduced_to: 1
  - symbol: Ag # 15
    coordinates: [  0.333333333333333,  0.333333333333333,  0.251483596357973 ]
    mass: 107.868200
    reduced_to: 1
  - symbol: Ag # 16
    coordinates: [  0.500000000000000,  0.500000000000000,  0.251483596357973 ]
    mass: 107.868200
    reduced_to: 1
  - symbol: Ag # 17
    coordinates: [  0.666666666666667,  0.666666666666667,  0.251483596357973 ]
    mass: 107.868200
    reduced_to: 1
  - symbol: Ag # 18
    coordinates: [  0.833333333333333,  0.833333333333333,  0.251483596357973 ]
    mass: 107.868200
    reduced_to: 1
  - symbol: Ag # 19
    coordinates: [  0.750000000000000,  0.250000000000000,  0.251483596357973 ]
    mass: 107.868200
    reduced_to: 1
  - symbol: Ag # 20
    coordinates: [  0.916666666666667,  0.416666666666667,  0.251483596357973 ]
    mass: 107.868200
    reduced_to: 1
  - symbol: Ag # 21
    coordinates: [  0.083333333333333,  0.583333333333333,  0.251483596357973 ]
    mass: 107.868200
    reduced_to: 1
  - symbol: Ag # 22
    coordinates: [  0.250000000000000,  0.750000000000000,  0.251483596357973 ]
    mass: 107.868200
    reduced_to: 1
  - symbol: Ag # 23
    coordinates: [  0.416666666666667,  0.916666666666667,  0.251483596357973 ]
    mass: 107.868200
    reduced_to: 1
  - symbol: Ag # 24
    coordinates: [  0.583333333333333,  0.083333333333333,  0.251483596357973 ]
    mass: 107.868200
    reduced_to: 1
  - symbol: Ag # 25
    coordinates: [  0.000000000000000,  0.000000000000000,  0.501483596357973 ]
    mass: 107.868200
    reduced_to: 1
  - symbol: Ag # 26
    coordinates: [  0.166666666666667,  0.166666666666667,  0.501483596357973 ]
    mass: 107.868200
    reduced_to: 1
  - symbol: Ag # 27
    coordinates: [  0.333333333333333,  0.333333333333333,  0.501483596357973 ]
    mass: 107.868200
    reduced_to: 1
  - symbol: Ag # 28
    coordinates: [  0.500000000000000,  0.500000000000000,  0.501483596357973 ]
    mass: 107.868200
    reduced_to: 1
  - symbol: Ag # 29
    coordinates: [  0.666666666666667,  0.666666666666667,  0.501483596357973 ]
    mass: 107.868200
    reduced_to: 1
  - symbol: Ag # 30
    coordinates: [  0.833333333333333,  0.833333333333333,  0.501483596357973 ]
    mass: 107.868200
    reduced_to: 1
  - symbol: Ag # 31
    coordinates: [  0.750000000000000,  0.250000000000000,  0.501483596357973 ]
    mass: 107.868200
    reduced_to: 1
  - symbol: Ag # 32
    coordinates: [  0.916666666666667,  0.416666666666667,  0.501483596357973 ]
    mass: 107.868200
    reduced_to: 1
  - symbol: Ag # 33
    coordinates: [  0.083333333333333,  0.583333333333333,  0.501483596357973 ]
    mass: 107.868200
    reduced_to: 1
  - symbol: Ag # 34
    coordinates: [  0.250000000000000,  0.750000000000000,  0.501483596357973 ]
    mass: 107.868200
    reduced_to: 1
  - symbol: Ag # 35
    coordinates: [  0.416666666666667,  0.916666666666667,  0.501483596357973 ]
    mass: 107.868200
    reduced_to: 1
  - symbol: Ag # 36
    coordinates: [  0.583333333333333,  0.083333333333333,  0.501483596357973 ]
    mass: 107.868200
    reduced_to: 1
  - symbol: Ag # 37
    coordinates: [  0.000000000000000,  0.000000000000000,  0.751483596357973 ]
    mass: 107.868200
    reduced_to: 1
  - symbol: Ag # 38
    coordinates: [  0.166666666666667,  0.166666666666667,  0.751483596357973 ]
    mass: 107.868200
    reduced_to: 1
  - symbol: Ag # 39
    coordinates: [  0.333333333333333,  0.333333333333333,  0.751483596357973 ]
    mass: 107.868200
    reduced_to: 1
  - symbol: Ag # 40
    coordinates: [  0.500000000000000,  0.500000000000000,  0.751483596357973 ]
    mass: 107.868200
    reduced_to: 1
  - symbol: Ag # 41
    coordinates: [  0.666666666666667,  0.666666666666667,  0.751483596357973 ]
    mass: 107.868200
    reduced_to: 1
  - symbol: Ag # 42
    coordinates: [  0.833333333333333,  0.833333333333333,  0.751483596357973 ]
    mass: 107.868200
    reduced_to: 1
  - symbol: Ag # 43
    coordinates: [  0.750000000000000,  0.250000000000000,  0.751483596357973 ]
    mass: 107.868200
    reduced_to: 1
  - symbol: Ag # 44
    coordinates: [  0.916666666666667,  0.416666666666667,  0.751483596357973 ]
    mass: 107.868200
    reduced_to: 1
  - symbol: Ag # 45
    coordinates: [  0.083333333333333,  0.583333333333333,  0.751483596357973 ]
    mass: 107.868200
    reduced_to: 1
  - symbol: Ag # 46
    coordinates: [  0.250000000000000,  0.750000000000000,  0.751483596357973 ]
    mass: 107.868200
    reduced_to: 1
  - symbol: Ag # 47
    coordinates: [  0.416666666666667,  0.916666666666667,  0.751483596357973 ]
    mass: 107.868200
    reduced_to: 1
  - symbol: Ag # 48
    coordinates: [  0.583333333333333,  0.083333333333333,  0.751483596357973 ]
    mass: 107.868200
    reduced_to: 1
  - symbol: Ag # 49
    coordinates: [  0.027777777777777,  0.194444444444445,  0.084816929691305 ]
    mass: 107.868200
    reduced_to: 1
  - symbol: Ag # 50
    coordinates: [  0.194444444444443,  0.361111111111111,  0.084816929691305 ]
    mass: 107.868200
    reduced_to: 1
  - symbol: Ag # 51
    coordinates: [  0.361111111111110,  0.527777777777778,  0.084816929691305 ]
    mass: 107.868200
    reduced_to: 1
  - symbol: Ag # 52
    coordinates: [  0.527777777777777,  0.694444444444445,  0.084816929691305 ]
    mass: 107.868200
    reduced_to: 1
  - symbol: Ag # 53
    coordinates: [  0.694444444444443,  0.861111111111111,  0.084816929691305 ]
    mass: 107.868200
    reduced_to: 1
  - symbol: Ag # 54
    coordinates: [  0.861111111111110,  0.027777777777778,  0.084816929691305 ]
    mass: 107.868200
    reduced_to: 1
  - symbol: Ag # 55
    coordinates: [  0.777777777777777,  0.444444444444445,  0.084816929691305 ]
    mass: 107.868200
    reduced_to: 1
  - symbol: Ag # 56
    coordinates: [  0.944444444444443,  0.611111111111111,  0.084816929691305 ]
    mass: 107.868200
    reduced_to: 1
  - symbol: Ag # 57
    coordinates: [  0.111111111111110,  0.777777777777778,  0.084816929691305 ]
    mass: 107.868200
    reduced_to: 1
  - symbol: Ag # 58
    coordinates: [  0.277777777777777,  0.944444444444445,  0.084816929691305 ]
    mass: 107.868200
    reduced_to: 1
  - symbol: Ag # 59
    coordinates: [  0.444444444444443,  0.111111111111111,  0.084816929691305 ]
    mass: 107.868200
    reduced_to: 1
  - symbol: Ag # 60
    coordinates: [  0.611111111111110,  0.277777777777778,  0.084816929691305 ]
    mass: 107.868200
    reduced_to: 1
  - symbol: Ag # 61
    coordinates: [  0.027777777777777,  0.194444444444445,  0.334816929691305 ]
    mass: 107.868200
    reduced_to: 1
  - symbol: Ag # 62
    coordinates: [  0.194444444444443,  0.361111111111111,  0.334816929691305 ]
    mass: 107.868200
    reduced_to: 1
  - symbol: Ag # 63
    coordinates: [  0.361111111111110,  0.527777777777778,  0.334816929691305 ]
    mass: 107.868200
    reduced_to: 1
  - symbol: Ag # 64
    coordinates: [  0.527777777777777,  0.694444444444445,  0.334816929691305 ]
    mass: 107.868200
    reduced_to: 1
  - symbol: Ag # 65
    coordinates: [  0.694444444444443,  0.861111111111111,  0.334816929691305 ]
    mass: 107.868200
    reduced_to: 1
  - symbol: Ag # 66
    coordinates: [  0.861111111111110,  0.027777777777778,  0.334816929691305 ]
    mass: 107.868200
    reduced_to: 1
  - symbol: Ag # 67
    coordinates: [  0.777777777777777,  0.444444444444445,  0.334816929691305 ]
    mass: 107.868200
    reduced_to: 1
  - symbol: Ag # 68
    coordinates: [  0.944444444444443,  0.611111111111111,  0.334816929691305 ]
    mass: 107.868200
    reduced_to: 1
  - symbol: Ag # 69
    coordinates: [  0.111111111111110,  0.777777777777778,  0.334816929691305 ]
    mass: 107.868200
    reduced_to: 1
  - symbol: Ag # 70
    coordinates: [  0.277777777777777,  0.944444444444445,  0.334816929691305 ]
    mass: 107.868200
    reduced_to: 1
  - symbol: Ag # 71
    coordinates: [  0.444444444444443,  0.111111111111111,  0.334816929691305 ]
    mass: 107.868200
    reduced_to: 1
  - symbol: Ag # 72
    coordinates: [  0.611111111111110,  0.277777777777778,  0.334816929691305 ]
    mass: 107.868200
    reduced_to: 1
  - symbol: Ag # 73
    coordinates: [  0.027777777777777,  0.194444444444445,  0.584816929691305 ]
    mass: 107.868200
    reduced_to: 1
  - symbol: Ag # 74
    coordinates: [  0.194444444444443,  0.361111111111111,  0.584816929691305 ]
    mass: 107.868200
    reduced_to: 1
  - symbol: Ag # 75
    coordinates: [  0.361111111111110,  0.527777777777778,  0.584816929691305 ]
    mass: 107.868200
    reduced_to: 1
  - symbol: Ag # 76
    coordinates: [  0.527777777777777,  0.694444444444445,  0.584816929691305 ]
    mass: 107.868200
    reduced_to: 1
  - symbol: Ag # 77
    coordinates: [  0.694444444444443,  0.861111111111111,  0.584816929691305 ]
    mass: 107.868200
    reduced_to: 1
  - symbol: Ag # 78
    coordinates: [  0.861111111111110,  0.027777777777778,  0.584816929691305 ]
    mass: 107.868200
    reduced_to: 1
  - symbol: Ag # 79
    coordinates: [  0.777777777777777,  0.444444444444445,  0.584816929691305 ]
    mass: 107.868200
    reduced_to: 1
  - symbol: Ag # 80
    coordinates: [  0.944444444444443,  0.611111111111111,  0.584816929691305 ]
    mass: 107.868200
    reduced_to: 1
  - symbol: Ag # 81
    coordinates: [  0.111111111111110,  0.777777777777778,  0.584816929691305 ]
    mass: 107.868200
    reduced_to: 1
  - symbol: Ag # 82
    coordinates: [  0.277777777777777,  0.944444444444445,  0.584816929691305 ]
    mass: 107.868200
    reduced_to: 1
  - symbol: Ag # 83
    coordinates: [  0.444444444444443,  0.111111111111111,  0.584816929691305 ]
    mass: 107.868200
    reduced_to: 1
  - symbol: Ag # 84
    coordinates: [  0.611111111111110,  0.277777777777778,  0.584816929691305 ]
    mass: 107.868200
    reduced_to: 1
  - symbol: Ag # 85
    coordinates: [  0.027777777777777,  0.194444444444445,  0.834816929691305 ]
    mass: 107.868200
    reduced_to: 1
  - symbol: Ag # 86
    coordinates: [  0.194444444444443,  0.361111111111111,  0.834816929691305 ]
    mass: 107.868200
    reduced_to: 1
  - symbol: Ag # 87
    coordinates: [  0.361111111111110,  0.527777777777778,  0.834816929691305 ]
    mass: 107.868200
    reduced_to: 1
  - symbol: Ag # 88
    coordinates: [  0.527777777777777,  0.694444444444445,  0.834816929691305 ]
    mass: 107.868200
    reduced_to: 1
  - symbol: Ag # 89
    coordinates: [  0.694444444444443,  0.861111111111111,  0.834816929691305 ]
    mass: 107.868200
    reduced_to: 1
  - symbol: Ag # 90
    coordinates: [  0.861111111111110,  0.027777777777778,  0.834816929691305 ]
    mass: 107.868200
    reduced_to: 1
  - symbol: Ag # 91
    coordinates: [  0.777777777777777,  0.444444444444445,  0.834816929691305 ]
    mass: 107.868200
    reduced_to: 1
  - symbol: Ag # 92
    coordinates: [  0.944444444444443,  0.611111111111111,  0.834816929691305 ]
    mass: 107.868200
    reduced_to: 1
  - symbol: Ag # 93
    coordinates: [  0.111111111111110,  0.777777777777778,  0.834816929691305 ]
    mass: 107.868200
    reduced_to: 1
  - symbol: Ag # 94
    coordinates: [  0.277777777777777,  0.944444444444445,  0.834816929691305 ]
    mass: 107.868200
    reduced_to: 1
  - symbol: Ag # 95
    coordinates: [  0.444444444444443,  0.111111111111111,  0.834816929691305 ]
    mass: 107.868200
    reduced_to: 1
  - symbol: Ag # 96
    coordinates: [  0.611111111111110,  0.277777777777778,  0.834816929691305 ]
    mass: 107.868200
    reduced_to: 1
  - symbol: Ag # 97
    coordinates: [  0.888888888888890,  0.222222222222222,  0.168150263024639 ]
    mass: 107.868200
    reduced_to: 1
  - symbol: Ag # 98
    coordinates: [  0.055555555555557,  0.388888888888889,  0.168150263024639 ]
    mass: 107.868200
    reduced_to: 1
  - symbol: Ag # 99
    coordinates: [  0.222222222222223,  0.555555555555555,  0.168150263024639 ]
    mass: 107.868200
    reduced_to: 1
  - symbol: Ag # 100
    coordinates: [  0.388888888888890,  0.722222222222222,  0.168150263024639 ]
    mass: 107.868200
    reduced_to: 1
  - symbol: Ag # 101
    coordinates: [  0.555555555555556,  0.888888888888889,  0.168150263024639 ]
    mass: 107.868200
    reduced_to: 1
  - symbol: Ag # 102
    coordinates: [  0.722222222222223,  0.055555555555555,  0.168150263024639 ]
    mass: 107.868200
    reduced_to: 1
  - symbol: Ag # 103
    coordinates: [  0.638888888888890,  0.472222222222222,  0.168150263024639 ]
    mass: 107.868200
    reduced_to: 1
  - symbol: Ag # 104
    coordinates: [  0.805555555555556,  0.638888888888889,  0.168150263024639 ]
    mass: 107.868200
    reduced_to: 1
  - symbol: Ag # 105
    coordinates: [  0.972222222222223,  0.805555555555555,  0.168150263024639 ]
    mass: 107.868200
    reduced_to: 1
  - symbol: Ag # 106
    coordinates: [  0.138888888888890,  0.972222222222222,  0.168150263024639 ]
    mass: 107.868200
    reduced_to: 1
  - symbol: Ag # 107
    coordinates: [  0.305555555555556,  0.138888888888889,  0.168150263024639 ]
    mass: 107.868200
    reduced_to: 1
  - symbol: Ag # 108
    coordinates: [  0.472222222222223,  0.305555555555555,  0.168150263024639 ]
    mass: 107.868200
    reduced_to: 1
  - symbol: Ag # 109
    coordinates: [  0.888888888888890,  0.222222222222222,  0.418150263024639 ]
    mass: 107.868200
    reduced_to: 1
  - symbol: Ag # 110
    coordinates: [  0.055555555555557,  0.388888888888889,  0.418150263024639 ]
    mass: 107.868200
    reduced_to: 1
  - symbol: Ag # 111
    coordinates: [  0.222222222222223,  0.555555555555555,  0.418150263024639 ]
    mass: 107.868200
    reduced_to: 1
  - symbol: Ag # 112
    coordinates: [  0.388888888888890,  0.722222222222222,  0.418150263024639 ]
    mass: 107.868200
    reduced_to: 1
  - symbol: Ag # 113
    coordinates: [  0.555555555555556,  0.888888888888889,  0.418150263024639 ]
    mass: 107.868200
    reduced_to: 1
  - symbol: Ag # 114
    coordinates: [  0.722222222222223,  0.055555555555555,  0.418150263024639 ]
    mass: 107.868200
    reduced_to: 1
  - symbol: Ag # 115
    coordinates: [  0.638888888888890,  0.472222222222222,  0.418150263024639 ]
    mass: 107.868200
    reduced_to: 1
  - symbol: Ag # 116
    coordinates: [  0.805555555555556,  0.638888888888889,  0.418150263024639 ]
    mass: 107.868200
    reduced_to: 1
  - symbol: Ag # 117
    coordinates: [  0.972222222222223,  0.805555555555555,  0.418150263024639 ]
    mass: 107.868200
    reduced_to: 1
  - symbol: Ag # 118
    coordinates: [  0.138888888888890,  0.972222222222222,  0.418150263024639 ]
    mass: 107.868200
    reduced_to: 1
  - symbol: Ag # 119
    coordinates: [  0.305555555555556,  0.138888888888889,  0.418150263024639 ]
    mass: 107.868200
    reduced_to: 1
  - symbol: Ag # 120
    coordinates: [  0.472222222222223,  0.305555555555555,  0.418150263024639 ]
    mass: 107.868200
    reduced_to: 1
  - symbol: Ag # 121
    coordinates: [  0.888888888888890,  0.222222222222222,  0.668150263024639 ]
    mass: 107.868200
    reduced_to: 1
  - symbol: Ag # 122
    coordinates: [  0.055555555555557,  0.388888888888889,  0.668150263024639 ]
    mass: 107.868200
    reduced_to: 1
  - symbol: Ag # 123
    coordinates: [  0.222222222222223,  0.555555555555555,  0.668150263024639 ]
    mass: 107.868200
    reduced_to: 1
  - symbol: Ag # 124
    coordinates: [  0.388888888888890,  0.722222222222222,  0.668150263024639 ]
    mass: 107.868200
    reduced_to: 1
  - symbol: Ag # 125
    coordinates: [  0.555555555555556,  0.888888888888889,  0.668150263024639 ]
    mass: 107.868200
    reduced_to: 1
  - symbol: Ag # 126
    coordinates: [  0.722222222222223,  0.055555555555555,  0.668150263024639 ]
    mass: 107.868200
    reduced_to: 1
  - symbol: Ag # 127
    coordinates: [  0.638888888888890,  0.472222222222222,  0.668150263024639 ]
    mass: 107.868200
    reduced_to: 1
  - symbol: Ag # 128
    coordinates: [  0.805555555555556,  0.638888888888889,  0.668150263024639 ]
    mass: 107.868200
    reduced_to: 1
  - symbol: Ag # 129
    coordinates: [  0.972222222222223,  0.805555555555555,  0.668150263024639 ]
    mass: 107.868200
    reduced_to: 1
  - symbol: Ag # 130
    coordinates: [  0.138888888888890,  0.972222222222222,  0.668150263024639 ]
    mass: 107.868200
    reduced_to: 1
  - symbol: Ag # 131
    coordinates: [  0.305555555555556,  0.138888888888889,  0.668150263024639 ]
    mass: 107.868200
    reduced_to: 1
  - symbol: Ag # 132
    coordinates: [  0.472222222222223,  0.305555555555555,  0.668150263024639 ]
    mass: 107.868200
    reduced_to: 1
  - symbol: Ag # 133
    coordinates: [  0.888888888888890,  0.222222222222222,  0.918150263024639 ]
    mass: 107.868200
    reduced_to: 1
  - symbol: Ag # 134
    coordinates: [  0.055555555555557,  0.388888888888889,  0.918150263024639 ]
    mass: 107.868200
    reduced_to: 1
  - symbol: Ag # 135
    coordinates: [  0.222222222222223,  0.555555555555555,  0.918150263024639 ]
    mass: 107.868200
    reduced_to: 1
  - symbol: Ag # 136
    coordinates: [  0.388888888888890,  0.722222222222222,  0.918150263024639 ]
    mass: 107.868200
    reduced_to: 1
  - symbol: Ag # 137
    coordinates: [  0.555555555555556,  0.888888888888889,  0.918150263024639 ]
    mass: 107.868200
    reduced_to: 1
  - symbol: Ag # 138
    coordinates: [  0.722222222222223,  0.055555555555555,  0.918150263024639 ]
    mass: 107.868200
    reduced_to: 1
  - symbol: Ag # 139
    coordinates: [  0.638888888888890,  0.472222222222222,  0.918150263024639 ]
    mass: 107.868200
    reduced_to: 1
  - symbol: Ag # 140
    coordinates: [  0.805555555555556,  0.638888888888889,  0.918150263024639 ]
    mass: 107.868200
    reduced_to: 1
  - symbol: Ag # 141
    coordinates: [  0.972222222222223,  0.805555555555555,  0.918150263024639 ]
    mass: 107.868200
    reduced_to: 1
  - symbol: Ag # 142
    coordinates: [  0.138888888888890,  0.972222222222222,  0.918150263024639 ]
    mass: 107.868200
    reduced_to: 1
  - symbol: Ag # 143
    coordinates: [  0.305555555555556,  0.138888888888889,  0.918150263024639 ]
    mass: 107.868200
    reduced_to: 1
  - symbol: Ag # 144
    coordinates: [  0.472222222222223,  0.305555555555555,  0.918150263024639 ]
    mass: 107.868200
    reduced_to: 1
  - symbol: Te # 145
    coordinates: [  0.819441525076603,  0.236111694984679,  0.084830383714009 ]
    mass: 127.600000
    reduced_to: 145
  - symbol: Te # 146
    coordinates: [  0.986108191743269,  0.402778361651346,  0.084830383714009 ]
    mass: 127.600000
    reduced_to: 145
  - symbol: Te # 147
    coordinates: [  0.152774858409936,  0.569445028318013,  0.084830383714009 ]
    mass: 127.600000
    reduced_to: 145
  - symbol: Te # 148
    coordinates: [  0.319441525076603,  0.736111694984679,  0.084830383714009 ]
    mass: 127.600000
    reduced_to: 145
  - symbol: Te # 149
    coordinates: [  0.486108191743269,  0.902778361651346,  0.084830383714009 ]
    mass: 127.600000
    reduced_to: 145
  - symbol: Te # 150
    coordinates: [  0.652774858409936,  0.069445028318013,  0.084830383714009 ]
    mass: 127.600000
    reduced_to: 145
  - symbol: Te # 151
    coordinates: [  0.569441525076603,  0.486111694984679,  0.084830383714009 ]
    mass: 127.600000
    reduced_to: 145
  - symbol: Te # 152
    coordinates: [  0.736108191743269,  0.652778361651346,  0.084830383714009 ]
    mass: 127.600000
    reduced_to: 145
  - symbol: Te # 153
    coordinates: [  0.902774858409936,  0.819445028318013,  0.084830383714009 ]
    mass: 127.600000
    reduced_to: 145
  - symbol: Te # 154
    coordinates: [  0.069441525076603,  0.986111694984679,  0.084830383714009 ]
    mass: 127.600000
    reduced_to: 145
  - symbol: Te # 155
    coordinates: [  0.236108191743269,  0.152778361651346,  0.084830383714009 ]
    mass: 127.600000
    reduced_to: 145
  - symbol: Te # 156
    coordinates: [  0.402774858409936,  0.319445028318013,  0.084830383714009 ]
    mass: 127.600000
    reduced_to: 145
  - symbol: Te # 157
    coordinates: [  0.819441525076603,  0.236111694984679,  0.334830383714009 ]
    mass: 127.600000
    reduced_to: 145
  - symbol: Te # 158
    coordinates: [  0.986108191743269,  0.402778361651346,  0.334830383714009 ]
    mass: 127.600000
    reduced_to: 145
  - symbol: Te # 159
    coordinates: [  0.152774858409936,  0.569445028318013,  0.334830383714009 ]
    mass: 127.600000
    reduced_to: 145
  - symbol: Te # 160
    coordinates: [  0.319441525076603,  0.736111694984679,  0.334830383714009 ]
    mass: 127.600000
    reduced_to: 145
  - symbol: Te # 161
    coordinates: [  0.486108191743269,  0.902778361651346,  0.334830383714009 ]
    mass: 127.600000
    reduced_to: 145
  - symbol: Te # 162
    coordinates: [  0.652774858409936,  0.069445028318013,  0.334830383714009 ]
    mass: 127.600000
    reduced_to: 145
  - symbol: Te # 163
    coordinates: [  0.569441525076603,  0.486111694984679,  0.334830383714009 ]
    mass: 127.600000
    reduced_to: 145
  - symbol: Te # 164
    coordinates: [  0.736108191743269,  0.652778361651346,  0.334830383714009 ]
    mass: 127.600000
    reduced_to: 145
  - symbol: Te # 165
    coordinates: [  0.902774858409936,  0.819445028318013,  0.334830383714009 ]
    mass: 127.600000
    reduced_to: 145
  - symbol: Te # 166
    coordinates: [  0.069441525076603,  0.986111694984679,  0.334830383714009 ]
    mass: 127.600000
    reduced_to: 145
  - symbol: Te # 167
    coordinates: [  0.236108191743269,  0.152778361651346,  0.334830383714009 ]
    mass: 127.600000
    reduced_to: 145
  - symbol: Te # 168
    coordinates: [  0.402774858409936,  0.319445028318013,  0.334830383714009 ]
    mass: 127.600000
    reduced_to: 145
  - symbol: Te # 169
    coordinates: [  0.819441525076603,  0.236111694984679,  0.584830383714009 ]
    mass: 127.600000
    reduced_to: 145
  - symbol: Te # 170
    coordinates: [  0.986108191743269,  0.402778361651346,  0.584830383714009 ]
    mass: 127.600000
    reduced_to: 145
  - symbol: Te # 171
    coordinates: [  0.152774858409936,  0.569445028318013,  0.584830383714009 ]
    mass: 127.600000
    reduced_to: 145
  - symbol: Te # 172
    coordinates: [  0.319441525076603,  0.736111694984679,  0.584830383714009 ]
    mass: 127.600000
    reduced_to: 145
  - symbol: Te # 173
    coordinates: [  0.486108191743269,  0.902778361651346,  0.584830383714009 ]
    mass: 127.600000
    reduced_to: 145
  - symbol: Te # 174
    coordinates: [  0.652774858409936,  0.069445028318013,  0.584830383714009 ]
    mass: 127.600000
    reduced_to: 145
  - symbol: Te # 175
    coordinates: [  0.569441525076603,  0.486111694984679,  0.584830383714009 ]
    mass: 127.600000
    reduced_to: 145
  - symbol: Te # 176
    coordinates: [  0.736108191743269,  0.652778361651346,  0.584830383714009 ]
    mass: 127.600000
    reduced_to: 145
  - symbol: Te # 177
    coordinates: [  0.902774858409936,  0.819445028318013,  0.584830383714009 ]
    mass: 127.600000
    reduced_to: 145
  - symbol: Te # 178
    coordinates: [  0.069441525076603,  0.986111694984679,  0.584830383714009 ]
    mass: 127.600000
    reduced_to: 145
  - symbol: Te # 179
    coordinates: [  0.236108191743269,  0.152778361651346,  0.584830383714009 ]
    mass: 127.600000
    reduced_to: 145
  - symbol: Te # 180
    coordinates: [  0.402774858409936,  0.319445028318013,  0.584830383714009 ]
    mass: 127.600000
    reduced_to: 145
  - symbol: Te # 181
    coordinates: [  0.819441525076603,  0.236111694984679,  0.834830383714009 ]
    mass: 127.600000
    reduced_to: 145
  - symbol: Te # 182
    coordinates: [  0.986108191743269,  0.402778361651346,  0.834830383714009 ]
    mass: 127.600000
    reduced_to: 145
  - symbol: Te # 183
    coordinates: [  0.152774858409936,  0.569445028318013,  0.834830383714009 ]
    mass: 127.600000
    reduced_to: 145
  - symbol: Te # 184
    coordinates: [  0.319441525076603,  0.736111694984679,  0.834830383714009 ]
    mass: 127.600000
    reduced_to: 145
  - symbol: Te # 185
    coordinates: [  0.486108191743269,  0.902778361651346,  0.834830383714009 ]
    mass: 127.600000
    reduced_to: 145
  - symbol: Te # 186
    coordinates: [  0.652774858409936,  0.069445028318013,  0.834830383714009 ]
    mass: 127.600000
    reduced_to: 145
  - symbol: Te # 187
    coordinates: [  0.569441525076603,  0.486111694984679,  0.834830383714009 ]
    mass: 127.600000
    reduced_to: 145
  - symbol: Te # 188
    coordinates: [  0.736108191743269,  0.652778361651346,  0.834830383714009 ]
    mass: 127.600000