phonopy:
  version: "2.21.0"
  frequency_unit_conversion_factor: 15.633302
  symmetry_tolerance: 1.00000e-04

space_group:
  type: "P2_1/c"
  number: 14
  Hall_symbol: "-P 2ybc"

primitive_matrix:
- [ -1.000000000000000,  0.000000000000000,  0.000000000000000 ]
- [  0.000000000000000,  1.000000000000000,  0.000000000000000 ]
- [  0.000000000000000,  0.000000000000000, -1.000000000000000 ]

supercell_matrix:
- [   0,   2,   0 ]
- [   3,   0,   0 ]
- [   0,   0,  -2 ]

primitive_cell:
  lattice:
  - [     0.000000000000000,    -6.735766262707839,     0.003745940723896 ] # a
  - [    13.107968964169945,     0.000000000000000,     0.000000000000000 ] # b
  - [     0.000000000000000,     0.023554706216499,    15.346699099617693 ] # c
  points:
  - symbol: Sr # 1
    coordinates: [  0.746373623896571,  0.876093050477631,  0.996474773826307 ]
    mass: 87.620000
  - symbol: Sr # 2
    coordinates: [  0.253626376103429,  0.376093050477631,  0.503525226173693 ]
    mass: 87.620000
  - symbol: Sr # 3
    coordinates: [  0.253626376103429,  0.123906949522369,  0.003525226173692 ]
    mass: 87.620000
  - symbol: Sr # 4
    coordinates: [  0.746373623896571,  0.623906949522369,  0.496474773826308 ]
    mass: 87.620000
  - symbol: Sr # 5
    coordinates: [  0.246772852797229,  0.873112811699437,  0.495943150146112 ]
    mass: 87.620000
  - symbol: Sr # 6
    coordinates: [  0.753227147202771,  0.373112811699444,  0.004056849853888 ]
    mass: 87.620000
  - symbol: Sr # 7
    coordinates: [  0.753227147202771,  0.126887188300563,  0.504056849853888 ]
    mass: 87.620000
  - symbol: Sr # 8
    coordinates: [  0.246772852797229,  0.626887188300563,  0.995943150146112 ]
    mass: 87.620000
  - symbol: Sr # 9
    coordinates: [  0.005819544818797,  0.721340496044764,  0.244403311004462 ]
    mass: 87.620000
  - symbol: Sr # 10
    coordinates: [  0.994180455181203,  0.221340496044764,  0.255596688995538 ]
    mass: 87.620000
  - symbol: Sr # 11
    coordinates: [  0.994180455181203,  0.278659503955236,  0.755596688995538 ]
    mass: 87.620000
  - symbol: Sr # 12
    coordinates: [  0.005819544818797,  0.778659503955236,  0.744403311004462 ]
    mass: 87.620000
  - symbol: Sr # 13
    coordinates: [  0.507382327312610,  0.528702385029814,  0.252564635462131 ]
    mass: 87.620000
  - symbol: Sr # 14
    coordinates: [  0.492617672687390,  0.028702385029815,  0.247435364537869 ]
    mass: 87.620000
  - symbol: Sr # 15
    coordinates: [  0.492617672687390,  0.471297614970185,  0.747435364537869 ]
    mass: 87.620000
  - symbol: Sr # 16
    coordinates: [  0.507382327312610,  0.971297614970185,  0.752564635462131 ]
    mass: 87.620000
  - symbol: Sb # 17
    coordinates: [  0.737253708493412,  0.631525102344429,  0.071808858918550 ]
    mass: 121.760000
  - symbol: Sb # 18
    coordinates: [  0.262746291506588,  0.131525102344429,  0.428191141081450 ]
    mass: 121.760000
  - symbol: Sb # 19
    coordinates: [  0.262746291506588,  0.368474897655571,  0.928191141081443 ]
    mass: 121.760000
  - symbol: Sb # 20
    coordinates: [  0.737253708493412,  0.868474897655571,  0.571808858918557 ]
    mass: 121.760000
  - symbol: Sb # 21
    coordinates: [  0.464095044419049,  0.778765565071697,  0.159127652380476 ]
    mass: 121.760000
  - symbol: Sb # 22
    coordinates: [  0.535904955580951,  0.278765565071697,  0.340872347619524 ]
    mass: 121.760000
  - symbol: Sb # 23
    coordinates: [  0.535904955580951,  0.221234434928303,  0.840872347619524 ]
    mass: 121.760000
  - symbol: Sb # 24
    coordinates: [  0.464095044419049,  0.721234434928303,  0.659127652380476 ]
    mass: 121.760000
  - symbol: Sb # 25
    coordinates: [  0.579789382345000,  0.795238431439714,  0.343000103534861 ]
    mass: 121.760000
  - symbol: Sb # 26
    coordinates: [  0.420210617655000,  0.295238431439714,  0.156999896465139 ]
    mass: 121.760000
  - symbol: Sb # 27
    coordinates: [  0.420210617655000,  0.204761568560286,  0.656999896465139 ]
    mass: 121.760000
  - symbol: Sb # 28
    coordinates: [  0.579789382345000,  0.704761568560286,  0.843000103534861 ]
    mass: 121.760000
  - symbol: Sb # 29
    coordinates: [  0.914795413891673,  0.954651420169672,  0.345856978124725 ]
    mass: 121.760000
  - symbol: Sb # 30
    coordinates: [  0.085204586108327,  0.454651420169671,  0.154143021875275 ]
    mass: 121.760000
  - symbol: Sb # 31
    coordinates: [  0.085204586108327,  0.045348579830329,  0.654143021875275 ]
    mass: 121.760000
  - symbol: Sb # 32
    coordinates: [  0.914795413891673,  0.545348579830328,  0.845856978124725 ]
    mass: 121.760000
  - symbol: Sb # 33
    coordinates: [  0.034111692750137,  0.968772051691570,  0.162161558958238 ]
    mass: 121.760000
  - symbol: Sb # 34
    coordinates: [  0.965888307249863,  0.468772051691570,  0.337838441041762 ]
    mass: 121.760000
  - symbol: Sb # 35
    coordinates: [  0.965888307249863,  0.031227948308430,  0.837838441041762 ]
    mass: 121.760000
  - symbol: Sb # 36
    coordinates: [  0.034111692750137,  0.531227948308430,  0.662161558958238 ]
    mass: 121.760000
  - symbol: Sb # 37
    coordinates: [  0.235660119155046,  0.616789402508769,  0.423507625941976 ]
    mass: 121.760000
  - symbol: Sb # 38
    coordinates: [  0.764339880844954,  0.116789402508768,  0.076492374058024 ]
    mass: 121.760000
  - symbol: Sb # 39
    coordinates: [  0.764339880844954,  0.383210597491231,  0.576492374058024 ]
    mass: 121.760000
  - symbol: Sb # 40
    coordinates: [  0.235660119155046,  0.883210597491231,  0.923507625941976 ]
    mass: 121.760000
  reciprocal_lattice: # without 2pi
  - [     0.000000000000000,    -0.148461081847829,     0.000227863799558 ] # a*
  - [     0.076289469614511,    -0.000000000000000,     0.000000000000000 ] # b*
  - [     0.000000000000000,     0.000036237526311,     0.065160536473972 ] # c*

unit_cell:
  lattice:
  - [     0.000000000000000,     6.735766262707838,    -0.003745940723896 ] # a
  - [    13.107968964169947,     0.000000000000000,     0.000000000000000 ] # b
  - [     0.000000000000000,    -0.023554706216499,   -15.346699099617693 ] # c
  points:
  - symbol: Sr # 1
    coordinates: [  0.253626376103429,  0.876093050477631,  0.003525226173693 ]
    mass: 87.620000
    reduced_to: 1
  - symbol: Sr # 2
    coordinates: [  0.746373623896571,  0.376093050477631,  0.496474773826307 ]
    mass: 87.620000
    reduced_to: 2
  - symbol: Sr # 3
    coordinates: [  0.746373623896571,  0.123906949522369,  0.996474773826307 ]
    mass: 87.620000
    reduced_to: 3
  - symbol: Sr # 4
    coordinates: [  0.253626376103429,  0.623906949522369,  0.503525226173693 ]
    mass: 87.620000
    reduced_to: 4
  - symbol: Sr # 5
    coordinates: [  0.753227147202771,  0.873112811699437,  0.504056849853888 ]
    mass: 87.620000
    reduced_to: 5
  - symbol: Sr # 6
    coordinates: [  0.246772852797229,  0.373112811699444,  0.995943150146112 ]
    mass: 87.620000
    reduced_to: 6
  - symbol: Sr # 7
    coordinates: [  0.246772852797229,  0.126887188300563,  0.495943150146112 ]
    mass: 87.620000
    reduced_to: 7
  - symbol: Sr # 8
    coordinates: [  0.753227147202771,  0.626887188300563,  0.004056849853888 ]
    mass: 87.620000
    reduced_to: 8
  - symbol: Sr # 9
    coordinates: [  0.994180455181204,  0.721340496044764,  0.755596688995538 ]
    mass: 87.620000
    reduced_to: 9
  - symbol: Sr # 10
    coordinates: [  0.005819544818796,  0.221340496044764,  0.744403311004462 ]
    mass: 87.620000
    reduced_to: 10
  - symbol: Sr # 11
    coordinates: [  0.005819544818796,  0.278659503955236,  0.244403311004462 ]
    mass: 87.620000
    reduced_to: 11
  - symbol: Sr # 12
    coordinates: [  0.994180455181204,  0.778659503955236,  0.255596688995538 ]
    mass: 87.620000
    reduced_to: 12
  - symbol: Sr # 13
    coordinates: [  0.492617672687390,  0.528702385029815,  0.747435364537869 ]
    mass: 87.620000
    reduced_to: 13
  - symbol: Sr # 14
    coordinates: [  0.507382327312610,  0.028702385029815,  0.752564635462131 ]
    mass: 87.620000
    reduced_to: 14
  - symbol: Sr # 15
    coordinates: [  0.507382327312610,  0.471297614970185,  0.252564635462131 ]
    mass: 87.620000
    reduced_to: 15
  - symbol: Sr # 16
    coordinates: [  0.492617672687390,  0.971297614970185,  0.247435364537869 ]
    mass: 87.620000
    reduced_to: 16
  - symbol: Sb # 17
    coordinates: [  0.262746291506588,  0.631525102344429,  0.928191141081450 ]
    mass: 121.760000
    reduced_to: 17
  - symbol: Sb # 18
    coordinates: [  0.737253708493412,  0.131525102344429,  0.571808858918550 ]
    mass: 121.760000
    reduced_to: 18
  - symbol: Sb # 19
    coordinates: [  0.737253708493412,  0.368474897655571,  0.071808858918557 ]
    mass: 121.760000
    reduced_to: 19
  - symbol: Sb # 20
    coordinates: [  0.262746291506588,  0.868474897655571,  0.428191141081443 ]
    mass: 121.760000
    reduced_to: 20
  - symbol: Sb # 21
    coordinates: [  0.535904955580952,  0.778765565071697,  0.840872347619524 ]
    mass: 121.760000
    reduced_to: 21
  - symbol: Sb # 22
    coordinates: [  0.464095044419049,  0.278765565071697,  0.659127652380476 ]
    mass: 121.760000
    reduced_to: 22
  - symbol: Sb # 23
    coordinates: [  0.464095044419049,  0.221234434928303,  0.159127652380476 ]
    mass: 121.760000
    reduced_to: 23
  - symbol: Sb # 24
    coordinates: [  0.535904955580952,  0.721234434928303,  0.340872347619524 ]
    mass: 121.760000
    reduced_to: 24
  - symbol: Sb # 25
    coordinates: [  0.420210617655000,  0.795238431439714,  0.656999896465139 ]
    mass: 121.760000
    reduced_to: 25
  - symbol: Sb # 26
    coordinates: [  0.579789382345000,  0.295238431439714,  0.843000103534861 ]
    mass: 121.760000
    reduced_to: 26
  - symbol: Sb # 27
    coordinates: [  0.579789382345000,  0.204761568560286,  0.343000103534861 ]
    mass: 121.760000
    reduced_to: 27
  - symbol: Sb # 28
    coordinates: [  0.420210617655000,  0.704761568560286,  0.156999896465139 ]
    mass: 121.760000
    reduced_to: 28
  - symbol: Sb # 29
    coordinates: [  0.085204586108327,  0.954651420169672,  0.654143021875275 ]
    mass: 121.760000
    reduced_to: 29
  - symbol: Sb # 30
    coordinates: [  0.914795413891673,  0.454651420169671,  0.845856978124725 ]
    mass: 121.760000
    reduced_to: 30
  - symbol: Sb # 31
    coordinates: [  0.914795413891673,  0.045348579830329,  0.345856978124725 ]
    mass: 121.760000
    reduced_to: 31
  - symbol: Sb # 32
    coordinates: [  0.085204586108327,  0.545348579830328,  0.154143021875275 ]
    mass: 121.760000
    reduced_to: 32
  - symbol: Sb # 33
    coordinates: [  0.965888307249863,  0.968772051691570,  0.837838441041762 ]
    mass: 121.760000
    reduced_to: 33
  - symbol: Sb # 34
    coordinates: [  0.034111692750137,  0.468772051691570,  0.662161558958238 ]
    mass: 121.760000
    reduced_to: 34
  - symbol: Sb # 35
    coordinates: [  0.034111692750137,  0.031227948308430,  0.162161558958238 ]
    mass: 121.760000
    reduced_to: 35
  - symbol: Sb # 36
    coordinates: [  0.965888307249863,  0.531227948308430,  0.337838441041762 ]
    mass: 121.760000
    reduced_to: 36
  - symbol: Sb # 37
    coordinates: [  0.764339880844954,  0.616789402508769,  0.576492374058024 ]
    mass: 121.760000
    reduced_to: 37
  - symbol: Sb # 38
    coordinates: [  0.235660119155046,  0.116789402508769,  0.923507625941976 ]
    mass: 121.760000
    reduced_to: 38
  - symbol: Sb # 39
    coordinates: [  0.235660119155046,  0.383210597491231,  0.423507625941976 ]
    mass: 121.760000
    reduced_to: 39
  - symbol: Sb # 40
    coordinates: [  0.764339880844954,  0.883210597491231,  0.076492374058024 ]
    mass: 121.760000
    reduced_to: 40

supercell:
  lattice:
  - [    39.323906892509839,     0.000000000000000,     0.000000000000000 ] # a
  - [     0.000000000000000,    13.471532525415675,    -0.007491881447793 ] # b
  - [     0.000000000000000,     0.047109412432999,    30.693398199235386 ] # c
  points:
  - symbol: Sr # 1
    coordinates: [  0.292031016825877,  0.126813188051715,  0.998237386913154 ]
    mass: 87.620000
    reduced_to: 1
  - symbol: Sr # 2
    coordinates: [  0.292031016825877,  0.626813188051715,  0.998237386913154 ]
    mass: 87.620000
    reduced_to: 1
  - symbol: Sr # 3
    coordinates: [  0.625364350159210,  0.126813188051715,  0.998237386913154 ]
    mass: 87.620000
    reduced_to: 1
  - symbol: Sr # 4
    coordinates: [  0.625364350159210,  0.626813188051715,  0.998237386913154 ]
    mass: 87.620000
    reduced_to: 1
  - symbol: Sr # 5
    coordinates: [  0.958697683492544,  0.126813188051715,  0.998237386913154 ]
    mass: 87.620000
    reduced_to: 1
  - symbol: Sr # 6
    coordinates: [  0.958697683492544,  0.626813188051715,  0.998237386913154 ]
    mass: 87.620000
    reduced_to: 1
  - symbol: Sr # 7
    coordinates: [  0.292031016825877,  0.126813188051715,  0.498237386913154 ]
    mass: 87.620000
    reduced_to: 1
  - symbol: Sr # 8
    coordinates: [  0.292031016825877,  0.626813188051715,  0.498237386913154 ]
    mass: 87.620000
    reduced_to: 1
  - symbol: Sr # 9
    coordinates: [  0.625364350159210,  0.126813188051715,  0.498237386913154 ]
    mass: 87.620000
    reduced_to: 1
  - symbol: Sr # 10
    coordinates: [  0.625364350159210,  0.626813188051715,  0.498237386913154 ]
    mass: 87.620000
    reduced_to: 1
  - symbol: Sr # 11
    coordinates: [  0.958697683492544,  0.126813188051715,  0.498237386913154 ]
    mass: 87.620000
    reduced_to: 1
  - symbol: Sr # 12
    coordinates: [  0.958697683492544,  0.626813188051715,  0.498237386913154 ]
    mass: 87.620000
    reduced_to: 1
  - symbol: Sr # 13
    coordinates: [  0.125364350159210,  0.373186811948285,  0.751762613086846 ]
    mass: 87.620000
    reduced_to: 13
  - symbol: Sr # 14
    coordinates: [  0.125364350159210,  0.873186811948285,  0.751762613086846 ]
    mass: 87.620000
    reduced_to: 13
  - symbol: Sr # 15
    coordinates: [  0.458697683492544,  0.373186811948285,  0.751762613086846 ]
    mass: 87.620000
    reduced_to: 13
  - symbol: Sr # 16
    coordinates: [  0.458697683492544,  0.873186811948285,  0.751762613086846 ]
    mass: 87.620000
    reduced_to: 13
  - symbol: Sr # 17
    coordinates: [  0.792031016825877,  0.373186811948285,  0.751762613086846 ]
    mass: 87.620000
    reduced_to: 13
  - symbol: Sr # 18
    coordinates: [  0.792031016825877,  0.873186811948285,  0.751762613086846 ]
    mass: 87.620000
    reduced_to: 13
  - symbol: Sr # 19
    coordinates: [  0.125364350159210,  0.373186811948285,  0.251762613086846 ]
    mass: 87.620000
    reduced_to: 13
  - symbol: Sr # 20
    coordinates: [  0.125364350159210,  0.873186811948285,  0.251762613086846 ]
    mass: 87.620000
    reduced_to: 13
  - symbol: Sr # 21
    coordinates: [  0.458697683492544,  0.373186811948285,  0.251762613086846 ]
    mass: 87.620000
    reduced_to: 13
  - symbol: Sr # 22
    coordinates: [  0.458697683492544,  0.873186811948285,  0.251762613086846 ]
    mass: 87.620000
    reduced_to: 13
  - symbol: Sr # 23
    coordinates: [  0.792031016825877,  0.373186811948285,  0.251762613086846 ]
    mass: 87.620000
    reduced_to: 13
  - symbol: Sr # 24
    coordinates: [  0.792031016825877,  0.873186811948285,  0.251762613086846 ]
    mass: 87.620000
    reduced_to: 13
  - symbol: Sr # 25
    coordinates: [  0.041302316507456,  0.373186811948285,  0.501762613086846 ]
    mass: 87.620000
    reduced_to: 25
  - symbol: Sr # 26
    coordinates: [  0.041302316507456,  0.873186811948285,  0.501762613086846 ]
    mass: 87.620000
    reduced_to: 25
  - symbol: Sr # 27
    coordinates: [  0.374635649840790,  0.373186811948285,  0.501762613086846 ]
    mass: 87.620000
    reduced_to: 25
  - symbol: Sr # 28
    coordinates: [  0.374635649840790,  0.873186811948285,  0.501762613086846 ]
    mass: 87.620000
    reduced_to: 25
  - symbol: Sr # 29
    coordinates: [  0.707968983174123,  0.373186811948285,  0.501762613086846 ]
    mass: 87.620000
    reduced_to: 25
  - symbol: Sr # 30
    coordinates: [  0.707968983174123,  0.873186811948285,  0.501762613086846 ]
    mass: 87.620000
    reduced_to: 25
  - symbol: Sr # 31
    coordinates: [  0.041302316507456,  0.373186811948285,  0.001762613086846 ]
    mass: 87.620000
    reduced_to: 25
  - symbol: Sr # 32
    coordinates: [  0.041302316507456,  0.873186811948285,  0.001762613086846 ]
    mass: 87.620000
    reduced_to: 25
  - symbol: Sr # 33
    coordinates: [  0.374635649840790,  0.373186811948285,  0.001762613086846 ]
    mass: 87.620000
    reduced_to: 25
  - symbol: Sr # 34
    coordinates: [  0.374635649840790,  0.873186811948285,  0.001762613086846 ]
    mass: 87.620000
    reduced_to: 25
  - symbol: Sr # 35
    coordinates: [  0.707968983174123,  0.373186811948285,  0.001762613086846 ]
    mass: 87.620000
    reduced_to: 25
  - symbol: Sr # 36
    coordinates: [  0.707968983174123,  0.873186811948285,  0.001762613086846 ]
    mass: 87.620000
    reduced_to: 25
  - symbol: Sr # 37
    coordinates: [  0.207968983174123,  0.126813188051715,  0.748237386913154 ]
    mass: 87.620000
    reduced_to: 37
  - symbol: Sr # 38
    coordinates: [  0.207968983174123,  0.626813188051715,  0.748237386913154 ]
    mass: 87.620000
    reduced_to: 37
  - symbol: Sr # 39
    coordinates: [  0.541302316507456,  0.126813188051715,  0.748237386913154 ]
    mass: 87.620000
    reduced_to: 37
  - symbol: Sr # 40
    coordinates: [  0.541302316507456,  0.626813188051715,  0.748237386913154 ]
    mass: 87.620000
    reduced_to: 37
  - symbol: Sr # 41
    coordinates: [  0.874635649840790,  0.126813188051715,  0.748237386913154 ]
    mass: 87.620000
    reduced_to: 37
  - symbol: Sr # 42
    coordinates: [  0.874635649840790,  0.626813188051715,  0.748237386913154 ]
    mass: 87.620000
    reduced_to: 37
  - symbol: Sr # 43
    coordinates: [  0.207968983174123,  0.126813188051715,  0.248237386913154 ]
    mass: 87.620000
    reduced_to: 37
  - symbol: Sr # 44
    coordinates: [  0.207968983174123,  0.626813188051715,  0.248237386913154 ]
    mass: 87.620000
    reduced_to: 37
  - symbol: Sr # 45
    coordinates: [  0.541302316507456,  0.126813188051715,  0.248237386913154 ]
    mass: 87.620000
    reduced_to: 37
  - symbol: Sr # 46
    coordinates: [  0.541302316507456,  0.626813188051715,  0.248237386913154 ]
    mass: 87.620000
    reduced_to: 37
  - symbol: Sr # 47
    coordinates: [  0.874635649840790,  0.126813188051715,  0.248237386913154 ]
    mass: 87.620000
    reduced_to: 37
  - symbol: Sr # 48
    coordinates: [  0.874635649840790,  0.626813188051715,  0.248237386913154 ]
    mass: 87.620000
    reduced_to: 37
  - symbol: Sr # 49
    coordinates: [  0.291037603899812,  0.376613573601386,  0.747971575073056 ]
    mass: 87.620000
    reduced_to: 49
  - symbol: Sr # 50
    coordinates: [  0.291037603899812,  0.876613573601386,  0.747971575073056 ]
    mass: 87.620000
    reduced_to: 49
  - symbol: Sr # 51
    coordinates: [  0.624370937233146,  0.376613573601386,  0.747971575073056 ]
    mass: 87.620000
    reduced_to: 49
  - symbol: Sr # 52
    coordinates: [  0.624370937233146,  0.876613573601386,  0.747971575073056 ]
    mass: 87.620000
    reduced_to: 49
  - symbol: Sr # 53
    coordinates: [  0.957704270566479,  0.376613573601386,  0.747971575073056 ]
    mass: 87.620000
    reduced_to: 49
  - symbol: Sr # 54
    coordinates: [  0.957704270566479,  0.876613573601386,  0.747971575073056 ]
    mass: 87.620000
    reduced_to: 49
  - symbol: Sr # 55
    coordinates: [  0.291037603899812,  0.376613573601386,  0.247971575073056 ]
    mass: 87.620000
    reduced_to: 49
  - symbol: Sr # 56
    coordinates: [  0.291037603899812,  0.876613573601386,  0.247971575073056 ]
    mass: 87.620000
    reduced_to: 49
  - symbol: Sr # 57
    coordinates: [  0.624370937233146,  0.376613573601386,  0.247971575073056 ]
    mass: 87.620000
    reduced_to: 49
  - symbol: Sr # 58
    coordinates: [  0.624370937233146,  0.876613573601386,  0.247971575073056 ]
    mass: 87.620000
    reduced_to: 49
  - symbol: Sr # 59
    coordinates: [  0.957704270566479,  0.376613573601386,  0.247971575073056 ]
    mass: 87.620000
    reduced_to: 49
  - symbol: Sr # 60
    coordinates: [  0.957704270566479,  0.876613573601386,  0.247971575073056 ]
    mass: 87.620000
    reduced_to: 49
  - symbol: Sr # 61
    coordinates: [  0.124370937233148,  0.123386426398614,  0.502028424926944 ]
    mass: 87.620000
    reduced_to: 61
  - symbol: Sr # 62
    coordinates: [  0.124370937233148,  0.623386426398614,  0.502028424926944 ]
    mass: 87.620000
    reduced_to: 61
  - symbol: Sr # 63
    coordinates: [  0.457704270566481,  0.123386426398614,  0.502028424926944 ]
    mass: 87.620000
    reduced_to: 61
  - symbol: Sr # 64
    coordinates: [  0.457704270566481,  0.623386426398614,  0.502028424926944 ]
    mass: 87.620000
    reduced_to: 61
  - symbol: Sr # 65
    coordinates: [  0.791037603899815,  0.123386426398614,  0.502028424926944 ]
    mass: 87.620000
    reduced_to: 61
  - symbol: Sr # 66
    coordinates: [  0.791037603899815,  0.623386426398614,  0.502028424926944 ]
    mass: 87.620000
    reduced_to: 61
  - symbol: Sr # 67
    coordinates: [  0.124370937233148,  0.123386426398614,  0.002028424926944 ]
    mass: 87.620000
    reduced_to: 61
  - symbol: Sr # 68
    coordinates: [  0.124370937233148,  0.623386426398614,  0.002028424926944 ]
    mass: 87.620000
    reduced_to: 61
  - symbol: Sr # 69
    coordinates: [  0.457704270566481,  0.123386426398614,  0.002028424926944 ]
    mass: 87.620000
    reduced_to: 61
  - symbol: Sr # 70
    coordinates: [  0.457704270566481,  0.623386426398614,  0.002028424926944 ]
    mass: 87.620000
    reduced_to: 61
  - symbol: Sr # 71
    coordinates: [  0.791037603899815,  0.123386426398614,  0.002028424926944 ]
    mass: 87.620000
    reduced_to: 61
  - symbol: Sr # 72
    coordinates: [  0.791037603899815,  0.623386426398614,  0.002028424926944 ]
    mass: 87.620000
    reduced_to: 61
  - symbol: Sr # 73
    coordinates: [  0.042295729433521,  0.123386426398614,  0.752028424926944 ]
    mass: 87.620000
    reduced_to: 73
  - symbol: Sr # 74
    coordinates: [  0.042295729433521,  0.623386426398614,  0.752028424926944 ]
    mass: 87.620000
    reduced_to: 73
  - symbol: Sr # 75
    coordinates: [  0.375629062766854,  0.123386426398614,  0.752028424926944 ]
    mass: 87.620000
    reduced_to: 73
  - symbol: Sr # 76
    coordinates: [  0.375629062766854,  0.623386426398614,  0.752028424926944 ]
    mass: 87.620000
    reduced_to: 73
  - symbol: Sr # 77
    coordinates: [  0.708962396100188,  0.123386426398614,  0.752028424926944 ]
    mass: 87.620000
    reduced_to: 73
  - symbol: Sr # 78
    coordinates: [  0.708962396100188,  0.623386426398614,  0.752028424926944 ]
    mass: 87.620000
    reduced_to: 73
  - symbol: Sr # 79
    coordinates: [  0.042295729433521,  0.123386426398614,  0.252028424926944 ]
    mass: 87.620000
    reduced_to: 73
  - symbol: Sr # 80
    coordinates: [  0.042295729433521,  0.623386426398614,  0.252028424926944 ]
    mass: 87.620000
    reduced_to: 73
  - symbol: Sr # 81
    coordinates: [  0.375629062766854,  0.123386426398614,  0.252028424926944 ]
    mass: 87.620000
    reduced_to: 73
  - symbol: Sr # 82
    coordinates: [  0.375629062766854,  0.623386426398614,  0.252028424926944 ]
    mass: 87.620000
    reduced_to: 73
  - symbol: Sr # 83
    coordinates: [  0.708962396100188,  0.123386426398614,  0.252028424926944 ]
    mass: 87.620000
    reduced_to: 73
  - symbol: Sr # 84
    coordinates: [  0.708962396100188,  0.623386426398614,  0.252028424926944 ]
    mass: 87.620000
    reduced_to: 73
  - symbol: Sr # 85
    coordinates: [  0.208962396100188,  0.376613573601386,  0.997971575073056 ]
    mass: 87.620000
    reduced_to: 85
  - symbol: Sr # 86
    coordinates: [  0.208962396100188,  0.876613573601386,  0.997971575073056 ]
    mass: 87.620000
    reduced_to: 85
  - symbol: Sr # 87
    coordinates: [  0.542295729433521,  0.376613573601386,  0.997971575073056 ]
    mass: 87.620000
    reduced_to: 85
  - symbol: Sr # 88
    coordinates: [  0.542295729433521,  0.876613573601386,  0.997971575073056 ]
    mass: 87.620000
    reduced_to: 85
  - symbol: Sr # 89
    coordinates: [  0.875629062766854,  0.376613573601386,  0.997971575073056 ]
    mass: 87.620000
    reduced_to: 85
  - symbol: Sr # 90
    coordinates: [  0.875629062766854,  0.876613573601386,  0.997971575073056 ]
    mass: 87.620000
    reduced_to: 85
  - symbol: Sr # 91
    coordinates: [  0.208962396100188,  0.376613573601386,  0.497971575073056 ]
    mass: 87.620000
    reduced_to: 85
  - symbol: Sr # 92
    coordinates: [  0.208962396100188,  0.876613573601386,  0.497971575073056 ]
    mass: 87.620000
    reduced_to: 85
  - symbol: Sr # 93
    coordinates: [  0.542295729433521,  0.376613573601386,  0.497971575073056 ]
    mass: 87.620000
    reduced_to: 85
  - symbol: Sr # 94
    coordinates: [  0.542295729433521,  0.876613573601386,  0.497971575073056 ]
    mass: 87.620000
    reduced_to: 85
  - symbol: Sr # 95
    coordinates: [  0.875629062766854,  0.376613573601386,  0.497971575073056 ]
    mass: 87.620000
    reduced_to: 85
  - symbol: Sr # 96
    coordinates: [  0.875629062766854,  0.876613573601386,  0.497971575073056 ]
    mass: 87.620000
    reduced_to: 85
  - symbol: Sr # 97
    coordinates: [  0.240446832014921,  0.497090227590602,  0.622201655502231 ]
    mass: 87.620000
    reduced_to: 97
  - symbol: Sr # 98
    coordinates: [  0.240446832014921,  0.997090227590602,  0.622201655502231 ]
    mass: 87.620000
    reduced_to: 97
  - symbol: Sr # 99
    coordinates: [  0.573780165348254,  0.497090227590602,  0.622201655502231 ]
    mass: 87.620000
    reduced_to: 97
  - symbol: Sr # 100
    coordinates: [  0.573780165348254,  0.997090227590602,  0.622201655502231 ]
    mass: 87.620000
    reduced_to: 97
  - symbol: Sr # 101
    coordinates: [  0.907113498681588,  0.497090227590602,  0.622201655502231 ]
    mass: 87.620000
    reduced_to: 97
  - symbol: Sr # 102
    coordinates: [  0.907113498681588,  0.997090227590602,  0.622201655502231 ]
    mass: 87.620000
    reduced_to: 97
  - symbol: Sr # 103
    coordinates: [  0.240446832014921,  0.497090227590602,  0.122201655502231 ]
    mass: 87.620000
    reduced_to: 97
  - symbol: Sr # 104
    coordinates: [  0.240446832014921,  0.997090227590602,  0.122201655502231 ]
    mass: 87.620000
    reduced_to: 97
  - symbol: Sr # 105
    coordinates: [  0.573780165348254,  0.497090227590602,  0.122201655502231 ]
    mass: 87.620000
    reduced_to: 97
  - symbol: Sr # 106
    coordinates: [  0.573780165348254,  0.997090227590602,  0.122201655502231 ]
    mass: 87.620000
    reduced_to: 97
  - symbol: Sr # 107
    coordinates: [  0.907113498681588,  0.497090227590602,  0.122201655502231 ]
    mass: 87.620000
    reduced_to: 97
  - symbol: Sr # 108
    coordinates: [  0.907113498681588,  0.997090227590602,  0.122201655502231 ]
    mass: 87.620000
    reduced_to: 97
  - symbol: Sr # 109
    coordinates: [  0.073780165348255,  0.002909772409398,  0.627798344497769 ]
    mass: 87.620000
    reduced_to: 109
  - symbol: Sr # 110
    coordinates: [  0.073780165348255,  0.502909772409398,  0.627798344497769 ]
    mass: 87.620000
    reduced_to: 109
  - symbol: Sr # 111
    coordinates: [  0.407113498681588,  0.002909772409398,  0.627798344497769 ]
    mass: 87.620000
    reduced_to: 109
  - symbol: Sr # 112
    coordinates: [  0.407113498681588,  0.502909772409398,  0.627798344497769 ]
    mass: 87.620000
    reduced_to: 109
  - symbol: Sr # 113
    coordinates: [  0.740446832014921,  0.002909772409398,  0.627798344497769 ]
    mass: 87.620000
    reduced_to: 109
  - symbol: Sr # 114
    coordinates: [  0.740446832014921,  0.502909772409398,  0.627798344497769 ]
    mass: 87.620000
    reduced_to: 109
  - symbol: Sr # 115
    coordinates: [  0.073780165348255,  0.002909772409398,  0.127798344497769 ]
    mass: 87.620000
    reduced_to: 109
  - symbol: Sr # 116
    coordinates: [  0.073780165348255,  0.502909772409398,  0.127798344497769 ]
    mass: 87.620000
    reduced_to: 109
  - symbol: Sr # 117
    coordinates: [  0.407113498681588,  0.002909772409398,  0.127798344497769 ]
    mass: 87.620000
    reduced_to: 109
  - symbol: Sr # 118
    coordinates: [  0.407113498681588,  0.502909772409398,  0.127798344497769 ]
    mass: 87.620000
    reduced_to: 109
  - symbol: Sr # 119
    coordinates: [  0.740446832014921,  0.002909772409398,  0.127798344497769 ]
    mass: 87.620000
    reduced_to: 109
  - symbol: Sr # 120
    coordinates: [  0.740446832014921,  0.502909772409398,  0.127798344497769 ]
    mass: 87.620000
    reduced_to: 109
  - symbol: Sr # 121
    coordinates: [  0.092886501318412,  0.002909772409398,  0.877798344497769 ]
    mass: 87.620000
    reduced_to: 121
  - symbol: Sr # 122
    coordinates: [  0.092886501318412,  0.502909772409398,  0.877798344497769 ]
    mass: 87.620000
    reduced_to: 121
  - symbol: Sr # 123
    coordinates: [  0.426219834651745,  0.002909772409398,  0.877798344497769 ]
    mass: 87.620000
    reduced_to: 121
  - symbol: Sr # 124
    coordinates: [  0.426219834651745,  0.502909772409398,  0.877798344497769 ]
    mass: 87.620000
    reduced_to: 121
  - symbol: Sr # 125
    coordinates: [  0.759553167985079,  0.002909772409398,  0.877798344497769 ]
    mass: 87.620000
    reduced_to: 121
  - symbol: Sr # 126
    coordinates: [  0.759553167985079,  0.502909772409398,  0.877798344497769 ]
    mass: 87.620000
    reduced_to: 121
  - symbol: Sr # 127
    coordinates: [  0.092886501318412,  0.002909772409398,  0.377798344497769 ]
    mass: 87.620000
    reduced_to: 121
  - symbol: Sr # 128
    coordinates: [  0.092886501318412,  0.502909772409398,  0.377798344497769 ]
    mass: 87.620000
    reduced_to: 121
  - symbol: Sr # 129
    coordinates: [  0.426219834651745,  0.002909772409398,  0.377798344497769 ]
    mass: 87.620000
    reduced_to: 121
  - symbol: Sr # 130