phonopy:
  version: "2.27.0"
  frequency_unit_conversion_factor: 15.633302
  symmetry_tolerance: 1.00000e-04

space_group:
  type: "R-3m"
  number: 166
  Hall_symbol: "-R 3 2\""

primitive_matrix:
- [  0.666666666666667, -0.333333333333333, -0.333333333333333 ]
- [  0.333333333333333,  0.333333333333333, -0.666666666666667 ]
- [  0.333333333333333,  0.333333333333333,  0.333333333333333 ]

supercell_matrix:
- [   5,   5,   0 ]
- [  -3,   3,   0 ]
- [   0,   0,   1 ]

primitive_cell:
  lattice:
  - [     2.213425882122177,    -1.277922028874533,    13.909665937200870 ] # a
  - [     0.000000000000019,     2.555844057749049,    13.909665937200870 ] # b
  - [    -2.213425882122189,    -1.277922028874508,    13.909665937200872 ] # c
  points:
  - symbol: Ge # 1
    coordinates: [  0.000000000000004,  0.000000000000008,  0.999999999999997 ]
    mass: 72.640000
  - symbol: Bi # 2
    coordinates: [  0.422326894795240,  0.422326894795247,  0.422326894795232 ]
    mass: 208.980400
  - symbol: Bi # 3
    coordinates: [  0.577673105204768,  0.577673105204767,  0.577673105204763 ]
    mass: 208.980400
  - symbol: Te # 4
    coordinates: [  0.130341619370295,  0.130341619370305,  0.130341619370289 ]
    mass: 127.600000
  - symbol: Te # 5
    coordinates: [  0.869658380629711,  0.869658380629713,  0.869658380629705 ]
    mass: 127.600000
  - symbol: Te # 6
    coordinates: [  0.294008084520399,  0.294008084520401,  0.294008084520392 ]
    mass: 127.600000
  - symbol: Te # 7
    coordinates: [  0.705991915479609,  0.705991915479616,  0.705991915479603 ]
    mass: 127.600000
  reciprocal_lattice: # without 2pi
  - [     0.225894168871202,    -0.130420059206158,     0.023964150888904 ] # a*
  - [     0.000000000000001,     0.260840118412313,     0.023964150888904 ] # b*
  - [    -0.225894168871204,    -0.130420059206155,     0.023964150888904 ] # c*

unit_cell:
  lattice:
  - [     2.213425882122158,    -3.833766086623583,     0.000000000000002 ] # a
  - [     2.213425882122207,     3.833766086623557,    -0.000000000000001 ] # b
  - [     0.000000000000008,     0.000000000000008,    41.728997811602618 ] # c
  points:
  - symbol: Ge # 1
    coordinates: [ -0.000000000000001,  0.000000000000006,  0.000000000000003 ]
    mass: 72.640000
    reduced_to: 1
  - symbol: Ge # 2
    coordinates: [  0.666666666666666,  0.333333333333339,  0.333333333333336 ]
    mass: 72.640000
    reduced_to: 1
  - symbol: Ge # 3
    coordinates: [  0.333333333333332,  0.666666666666673,  0.666666666666670 ]
    mass: 72.640000
    reduced_to: 1
  - symbol: Bi # 4
    coordinates: [  0.333333333333331,  0.666666666666675,  0.088993561461906 ]
    mass: 208.980400
    reduced_to: 4
  - symbol: Bi # 5
    coordinates: [  0.333333333333333,  0.666666666666670,  0.244339771871432 ]
    mass: 208.980400
    reduced_to: 5
  - symbol: Bi # 6
    coordinates: [ -0.000000000000002,  0.000000000000008,  0.422326894795241 ]
    mass: 208.980400
    reduced_to: 4
  - symbol: Bi # 7
    coordinates: [  0.000000000000000,  0.000000000000004,  0.577673105204765 ]
    mass: 208.980400
    reduced_to: 5
  - symbol: Bi # 8
    coordinates: [  0.666666666666664,  0.333333333333342,  0.755660228128572 ]
    mass: 208.980400
    reduced_to: 4
  - symbol: Bi # 9
    coordinates: [  0.666666666666668,  0.333333333333337,  0.911006438538100 ]
    mass: 208.980400
    reduced_to: 5
  - symbol: Te # 10
    coordinates: [ -0.000000000000003,  0.000000000000008,  0.130341619370296 ]
    mass: 127.600000
    reduced_to: 10
  - symbol: Te # 11
    coordinates: [  0.666666666666668,  0.333333333333338,  0.202991713963043 ]
    mass: 127.600000
    reduced_to: 11
  - symbol: Te # 12
    coordinates: [ -0.000000000000001,  0.000000000000005,  0.294008084520396 ]
    mass: 127.600000
    reduced_to: 12
  - symbol: Te # 13
    coordinates: [  0.666666666666666,  0.333333333333339,  0.039325248812943 ]
    mass: 127.600000
    reduced_to: 13
  - symbol: Te # 14
    coordinates: [  0.666666666666664,  0.333333333333341,  0.463674952703628 ]
    mass: 127.600000
    reduced_to: 10
  - symbol: Te # 15
    coordinates: [  0.333333333333333,  0.666666666666671,  0.536325047296377 ]
    mass: 127.600000
    reduced_to: 11
  - symbol: Te # 16
    coordinates: [  0.666666666666666,  0.333333333333339,  0.627341417853730 ]
    mass: 127.600000
    reduced_to: 12
  - symbol: Te # 17
    coordinates: [  0.333333333333333,  0.666666666666673,  0.372658582146276 ]
    mass: 127.600000
    reduced_to: 13
  - symbol: Te # 18
    coordinates: [  0.333333333333330,  0.666666666666674,  0.797008286036963 ]
    mass: 127.600000
    reduced_to: 10
  - symbol: Te # 19
    coordinates: [  0.000000000000000,  0.000000000000004,  0.869658380629709 ]
    mass: 127.600000
    reduced_to: 11
  - symbol: Te # 20
    coordinates: [  0.333333333333333,  0.666666666666672,  0.960674751187063 ]
    mass: 127.600000
    reduced_to: 12
  - symbol: Te # 21
    coordinates: [ -0.000000000000001,  0.000000000000007,  0.705991915479609 ]
    mass: 127.600000
    reduced_to: 13

supercell:
  lattice:
  - [     4.426851764244169,   -30.670128692988587,     0.000000000000011 ] # a
  - [    17.707407056977409,    -7.667532173247242,     0.000000000000005 ] # b
  - [     0.000000000000008,     0.000000000000008,    41.728997811602618 ] # c
  points:
  - symbol: Ge # 1
    coordinates: [  0.999999999999999,  0.000000000000001,  0.000000000000003 ]
    mass: 72.640000
    reduced_to: 1
  - symbol: Ge # 2
    coordinates: [  0.099999999999999,  0.100000000000001,  0.000000000000003 ]
    mass: 72.640000
    reduced_to: 1
  - symbol: Ge # 3
    coordinates: [  0.199999999999999,  0.200000000000001,  0.000000000000003 ]
    mass: 72.640000
    reduced_to: 1
  - symbol: Ge # 4
    coordinates: [  0.299999999999999,  0.300000000000001,  0.000000000000003 ]
    mass: 72.640000
    reduced_to: 1
  - symbol: Ge # 5
    coordinates: [  0.399999999999999,  0.400000000000001,  0.000000000000003 ]
    mass: 72.640000
    reduced_to: 1
  - symbol: Ge # 6
    coordinates: [  0.499999999999999,  0.500000000000001,  0.000000000000003 ]
    mass: 72.640000
    reduced_to: 1
  - symbol: Ge # 7
    coordinates: [  0.599999999999999,  0.600000000000001,  0.000000000000003 ]
    mass: 72.640000
    reduced_to: 1
  - symbol: Ge # 8
    coordinates: [  0.699999999999999,  0.700000000000001,  0.000000000000003 ]
    mass: 72.640000
    reduced_to: 1
  - symbol: Ge # 9
    coordinates: [  0.799999999999999,  0.800000000000001,  0.000000000000003 ]
    mass: 72.640000
    reduced_to: 1
  - symbol: Ge # 10
    coordinates: [  0.899999999999999,  0.900000000000001,  0.000000000000003 ]
    mass: 72.640000
    reduced_to: 1
  - symbol: Ge # 11
    coordinates: [  0.833333333333332,  0.166666666666668,  0.000000000000003 ]
    mass: 72.640000
    reduced_to: 1
  - symbol: Ge # 12
    coordinates: [  0.933333333333332,  0.266666666666667,  0.000000000000003 ]
    mass: 72.640000
    reduced_to: 1
  - symbol: Ge # 13
    coordinates: [  0.033333333333332,  0.366666666666668,  0.000000000000003 ]
    mass: 72.640000
    reduced_to: 1
  - symbol: Ge # 14
    coordinates: [  0.133333333333332,  0.466666666666668,  0.000000000000003 ]
    mass: 72.640000
    reduced_to: 1
  - symbol: Ge # 15
    coordinates: [  0.233333333333332,  0.566666666666668,  0.000000000000003 ]
    mass: 72.640000
    reduced_to: 1
  - symbol: Ge # 16
    coordinates: [  0.333333333333332,  0.666666666666668,  0.000000000000003 ]
    mass: 72.640000
    reduced_to: 1
  - symbol: Ge # 17
    coordinates: [  0.433333333333332,  0.766666666666668,  0.000000000000003 ]
    mass: 72.640000
    reduced_to: 1
  - symbol: Ge # 18
    coordinates: [  0.533333333333332,  0.866666666666668,  0.000000000000003 ]
    mass: 72.640000
    reduced_to: 1
  - symbol: Ge # 19
    coordinates: [  0.633333333333332,  0.966666666666668,  0.000000000000003 ]
    mass: 72.640000
    reduced_to: 1
  - symbol: Ge # 20
    coordinates: [  0.733333333333332,  0.066666666666668,  0.000000000000003 ]
    mass: 72.640000
    reduced_to: 1
  - symbol: Ge # 21
    coordinates: [  0.666666666666666,  0.333333333333334,  0.000000000000003 ]
    mass: 72.640000
    reduced_to: 1
  - symbol: Ge # 22
    coordinates: [  0.766666666666666,  0.433333333333334,  0.000000000000003 ]
    mass: 72.640000
    reduced_to: 1
  - symbol: Ge # 23
    coordinates: [  0.866666666666666,  0.533333333333334,  0.000000000000003 ]
    mass: 72.640000
    reduced_to: 1
  - symbol: Ge # 24
    coordinates: [  0.966666666666666,  0.633333333333334,  0.000000000000003 ]
    mass: 72.640000
    reduced_to: 1
  - symbol: Ge # 25
    coordinates: [  0.066666666666666,  0.733333333333334,  0.000000000000003 ]
    mass: 72.640000
    reduced_to: 1
  - symbol: Ge # 26
    coordinates: [  0.166666666666666,  0.833333333333334,  0.000000000000003 ]
    mass: 72.640000
    reduced_to: 1
  - symbol: Ge # 27
    coordinates: [  0.266666666666666,  0.933333333333334,  0.000000000000003 ]
    mass: 72.640000
    reduced_to: 1
  - symbol: Ge # 28
    coordinates: [  0.366666666666666,  0.033333333333334,  0.000000000000003 ]
    mass: 72.640000
    reduced_to: 1
  - symbol: Ge # 29
    coordinates: [  0.466666666666666,  0.133333333333334,  0.000000000000003 ]
    mass: 72.640000
    reduced_to: 1
  - symbol: Ge # 30
    coordinates: [  0.566666666666666,  0.233333333333334,  0.000000000000003 ]
    mass: 72.640000
    reduced_to: 1
  - symbol: Ge # 31
    coordinates: [  0.011111111111110,  0.122222222222223,  0.333333333333336 ]
    mass: 72.640000
    reduced_to: 1
  - symbol: Ge # 32
    coordinates: [  0.111111111111110,  0.222222222222223,  0.333333333333336 ]
    mass: 72.640000
    reduced_to: 1
  - symbol: Ge # 33
    coordinates: [  0.211111111111110,  0.322222222222223,  0.333333333333336 ]
    mass: 72.640000
    reduced_to: 1
  - symbol: Ge # 34
    coordinates: [  0.311111111111110,  0.422222222222223,  0.333333333333336 ]
    mass: 72.640000
    reduced_to: 1
  - symbol: Ge # 35
    coordinates: [  0.411111111111110,  0.522222222222223,  0.333333333333336 ]
    mass: 72.640000
    reduced_to: 1
  - symbol: Ge # 36
    coordinates: [  0.511111111111110,  0.622222222222223,  0.333333333333336 ]
    mass: 72.640000
    reduced_to: 1
  - symbol: Ge # 37
    coordinates: [  0.611111111111110,  0.722222222222223,  0.333333333333336 ]
    mass: 72.640000
    reduced_to: 1
  - symbol: Ge # 38
    coordinates: [  0.711111111111110,  0.822222222222223,  0.333333333333336 ]
    mass: 72.640000
    reduced_to: 1
  - symbol: Ge # 39
    coordinates: [  0.811111111111110,  0.922222222222223,  0.333333333333336 ]
    mass: 72.640000
    reduced_to: 1
  - symbol: Ge # 40
    coordinates: [  0.911111111111110,  0.022222222222223,  0.333333333333336 ]
    mass: 72.640000
    reduced_to: 1
  - symbol: Ge # 41
    coordinates: [  0.844444444444443,  0.288888888888890,  0.333333333333336 ]
    mass: 72.640000
    reduced_to: 1
  - symbol: Ge # 42
    coordinates: [  0.944444444444444,  0.388888888888890,  0.333333333333336 ]
    mass: 72.640000
    reduced_to: 1
  - symbol: Ge # 43
    coordinates: [  0.044444444444443,  0.488888888888890,  0.333333333333336 ]
    mass: 72.640000
    reduced_to: 1
  - symbol: Ge # 44
    coordinates: [  0.144444444444443,  0.588888888888890,  0.333333333333336 ]
    mass: 72.640000
    reduced_to: 1
  - symbol: Ge # 45
    coordinates: [  0.244444444444443,  0.688888888888890,  0.333333333333336 ]
    mass: 72.640000
    reduced_to: 1
  - symbol: Ge # 46
    coordinates: [  0.344444444444443,  0.788888888888890,  0.333333333333336 ]
    mass: 72.640000
    reduced_to: 1
  - symbol: Ge # 47
    coordinates: [  0.444444444444443,  0.888888888888890,  0.333333333333336 ]
    mass: 72.640000
    reduced_to: 1
  - symbol: Ge # 48
    coordinates: [  0.544444444444443,  0.988888888888890,  0.333333333333336 ]
    mass: 72.640000
    reduced_to: 1
  - symbol: Ge # 49
    coordinates: [  0.644444444444443,  0.088888888888890,  0.333333333333336 ]
    mass: 72.640000
    reduced_to: 1
  - symbol: Ge # 50
    coordinates: [  0.744444444444444,  0.188888888888890,  0.333333333333336 ]
    mass: 72.640000
    reduced_to: 1
  - symbol: Ge # 51
    coordinates: [  0.677777777777777,  0.455555555555556,  0.333333333333336 ]
    mass: 72.640000
    reduced_to: 1
  - symbol: Ge # 52
    coordinates: [  0.777777777777777,  0.555555555555556,  0.333333333333336 ]
    mass: 72.640000
    reduced_to: 1
  - symbol: Ge # 53
    coordinates: [  0.877777777777777,  0.655555555555556,  0.333333333333336 ]
    mass: 72.640000
    reduced_to: 1
  - symbol: Ge # 54
    coordinates: [  0.977777777777777,  0.755555555555556,  0.333333333333336 ]
    mass: 72.640000
    reduced_to: 1
  - symbol: Ge # 55
    coordinates: [  0.077777777777777,  0.855555555555557,  0.333333333333336 ]
    mass: 72.640000
    reduced_to: 1
  - symbol: Ge # 56
    coordinates: [  0.177777777777777,  0.955555555555556,  0.333333333333336 ]
    mass: 72.640000
    reduced_to: 1
  - symbol: Ge # 57
    coordinates: [  0.277777777777777,  0.055555555555556,  0.333333333333336 ]
    mass: 72.640000
    reduced_to: 1
  - symbol: Ge # 58
    coordinates: [  0.377777777777777,  0.155555555555556,  0.333333333333336 ]
    mass: 72.640000
    reduced_to: 1
  - symbol: Ge # 59
    coordinates: [  0.477777777777777,  0.255555555555556,  0.333333333333336 ]
    mass: 72.640000
    reduced_to: 1
  - symbol: Ge # 60
    coordinates: [  0.577777777777777,  0.355555555555557,  0.333333333333336 ]
    mass: 72.640000
    reduced_to: 1
  - symbol: Ge # 61
    coordinates: [  0.922222222222221,  0.144444444444445,  0.666666666666670 ]
    mass: 72.640000
    reduced_to: 1
  - symbol: Ge # 62
    coordinates: [  0.022222222222221,  0.244444444444445,  0.666666666666670 ]
    mass: 72.640000
    reduced_to: 1
  - symbol: Ge # 63
    coordinates: [  0.122222222222221,  0.344444444444445,  0.666666666666670 ]
    mass: 72.640000
    reduced_to: 1
  - symbol: Ge # 64
    coordinates: [  0.222222222222221,  0.444444444444445,  0.666666666666670 ]
    mass: 72.640000
    reduced_to: 1
  - symbol: Ge # 65
    coordinates: [  0.322222222222221,  0.544444444444445,  0.666666666666670 ]
    mass: 72.640000
    reduced_to: 1
  - symbol: Ge # 66
    coordinates: [  0.422222222222221,  0.644444444444445,  0.666666666666670 ]
    mass: 72.640000
    reduced_to: 1
  - symbol: Ge # 67
    coordinates: [  0.522222222222221,  0.744444444444445,  0.666666666666670 ]
    mass: 72.640000
    reduced_to: 1
  - symbol: Ge # 68
    coordinates: [  0.622222222222221,  0.844444444444445,  0.666666666666670 ]
    mass: 72.640000
    reduced_to: 1
  - symbol: Ge # 69
    coordinates: [  0.722222222222221,  0.944444444444445,  0.666666666666670 ]
    mass: 72.640000
    reduced_to: 1
  - symbol: Ge # 70
    coordinates: [  0.822222222222221,  0.044444444444445,  0.666666666666670 ]
    mass: 72.640000
    reduced_to: 1
  - symbol: Ge # 71
    coordinates: [  0.755555555555554,  0.311111111111112,  0.666666666666670 ]
    mass: 72.640000
    reduced_to: 1
  - symbol: Ge # 72
    coordinates: [  0.855555555555554,  0.411111111111112,  0.666666666666670 ]
    mass: 72.640000
    reduced_to: 1
  - symbol: Ge # 73
    coordinates: [  0.955555555555554,  0.511111111111112,  0.666666666666670 ]
    mass: 72.640000
    reduced_to: 1
  - symbol: Ge # 74
    coordinates: [  0.055555555555554,  0.611111111111112,  0.666666666666670 ]
    mass: 72.640000
    reduced_to: 1
  - symbol: Ge # 75
    coordinates: [  0.155555555555554,  0.711111111111112,  0.666666666666670 ]
    mass: 72.640000
    reduced_to: 1
  - symbol: Ge # 76
    coordinates: [  0.255555555555554,  0.811111111111112,  0.666666666666670 ]
    mass: 72.640000
    reduced_to: 1
  - symbol: Ge # 77
    coordinates: [  0.355555555555555,  0.911111111111112,  0.666666666666670 ]
    mass: 72.640000
    reduced_to: 1
  - symbol: Ge # 78
    coordinates: [  0.455555555555554,  0.011111111111112,  0.666666666666670 ]
    mass: 72.640000
    reduced_to: 1
  - symbol: Ge # 79
    coordinates: [  0.555555555555554,  0.111111111111112,  0.666666666666670 ]
    mass: 72.640000
    reduced_to: 1
  - symbol: Ge # 80
    coordinates: [  0.655555555555554,  0.211111111111112,  0.666666666666670 ]
    mass: 72.640000
    reduced_to: 1
  - symbol: Ge # 81
    coordinates: [  0.588888888888888,  0.477777777777779,  0.666666666666670 ]
    mass: 72.640000
    reduced_to: 1
  - symbol: Ge # 82
    coordinates: [  0.688888888888888,  0.577777777777779,  0.666666666666670 ]
    mass: 72.640000
    reduced_to: 1
  - symbol: Ge # 83
    coordinates: [  0.788888888888888,  0.677777777777779,  0.666666666666670 ]
    mass: 72.640000
    reduced_to: 1
  - symbol: Ge # 84
    coordinates: [  0.888888888888888,  0.777777777777779,  0.666666666666670 ]
    mass: 72.640000
    reduced_to: 1
  - symbol: Ge # 85
    coordinates: [  0.988888888888888,  0.877777777777779,  0.666666666666670 ]
    mass: 72.640000
    reduced_to: 1
  - symbol: Ge # 86
    coordinates: [  0.088888888888888,  0.977777777777779,  0.666666666666670 ]
    mass: 72.640000
    reduced_to: 1
  - symbol: Ge # 87
    coordinates: [  0.188888888888888,  0.077777777777779,  0.666666666666670 ]
    mass: 72.640000
    reduced_to: 1
  - symbol: Ge # 88
    coordinates: [  0.288888888888888,  0.177777777777779,  0.666666666666670 ]
    mass: 72.640000
    reduced_to: 1
  - symbol: Ge # 89
    coordinates: [  0.388888888888888,  0.277777777777779,  0.666666666666670 ]
    mass: 72.640000
    reduced_to: 1
  - symbol: Ge # 90
    coordinates: [  0.488888888888888,  0.377777777777779,  0.666666666666670 ]
    mass: 72.640000
    reduced_to: 1
  - symbol: Bi # 91
    coordinates: [  0.922222222222221,  0.144444444444446,  0.088993561461906 ]
    mass: 208.980400
    reduced_to: 91
  - symbol: Bi # 92
    coordinates: [  0.022222222222221,  0.244444444444446,  0.088993561461906 ]
    mass: 208.980400
    reduced_to: 91
  - symbol: Bi # 93
    coordinates: [  0.122222222222221,  0.344444444444446,  0.088993561461906 ]
    mass: 208.980400
    reduced_to: 91
  - symbol: Bi # 94
    coordinates: [  0.222222222222221,  0.444444444444446,  0.088993561461906 ]
    mass: 208.980400
    reduced_to: 91
  - symbol: Bi # 95
    coordinates: [  0.322222222222221,  0.544444444444446,  0.088993561461906 ]
    mass: 208.980400
    reduced_to: 91
  - symbol: Bi # 96
    coordinates: [  0.422222222222221,  0.644444444444446,  0.088993561461906 ]
    mass: 208.980400
    reduced_to: 91
  - symbol: Bi # 97
    coordinates: [  0.522222222222221,  0.744444444444446,  0.088993561461906 ]
    mass: 208.980400
    reduced_to: 91
  - symbol: Bi # 98
    coordinates: [  0.622222222222221,  0.844444444444446,  0.088993561461906 ]
    mass: 208.980400
    reduced_to: 91
  - symbol: Bi # 99
    coordinates: [  0.722222222222221,  0.944444444444446,  0.088993561461906 ]
    mass: 208.980400
    reduced_to: 91
  - symbol: Bi # 100
    coordinates: [  0.822222222222221,  0.044444444444446,  0.088993561461906 ]
    mass: 208.980400
    reduced_to: 91
  - symbol: Bi # 101
    coordinates: [  0.755555555555554,  0.311111111111112,  0.088993561461906 ]
    mass: 208.980400
    reduced_to: 91
  - symbol: Bi # 102
    coordinates: [  0.855555555555554,  0.411111111111112,  0.088993561461906 ]
    mass: 208.980400
    reduced_to: 91
  - symbol: Bi # 103
    coordinates: [  0.955555555555554,  0.511111111111112,  0.088993561461906 ]
    mass: 208.980400
    reduced_to: 91
  - symbol: Bi # 104
    coordinates: [  0.055555555555554,  0.611111111111112,  0.088993561461906 ]
    mass: 208.980400
    reduced_to: 91
  - symbol: Bi # 105
    coordinates: [  0.155555555555554,  0.711111111111112,  0.088993561461906 ]
    mass: 208.980400
    reduced_to: 91
  - symbol: Bi # 106
    coordinates: [  0.255555555555554,  0.811111111111112,  0.088993561461906 ]
    mass: 208.980400
    reduced_to: 91
  - symbol: Bi # 107
    coordinates: [  0.355555555555554,  0.911111111111112,  0.088993561461906 ]
    mass: 208.980400
    reduced_to: 91
  - symbol: Bi # 108
    coordinates: [  0.455555555555554,  0.011111111111112,  0.088993561461906 ]
    mass: 208.980400
    reduced_to: 91
  - symbol: Bi # 109
    coordinates: [  0.555555555555554,  0.111111111111112,  0.088993561461906 ]
    mass: 208.980400
    reduced_to: 91
  - symbol: Bi # 110
    coordinates: [  0.655555555555554,  0.211111111111112,  0.088993561461906 ]
    mass: 208.980400
    reduced_to: 91
  - symbol: Bi # 111
    coordinates: [  0.588888888888887,  0.477777777777779,  0.088993561461906 ]
    mass: 208.980400
    reduced_to: 91
  - symbol: Bi # 112
    coordinates: [  0.688888888888887,  0.577777777777779,  0.088993561461906 ]
    mass: 208.980400
    reduced_to: 91
  - symbol: Bi # 113
    coordinates: [  0.788888888888887,  0.677777777777779,  0.088993561461906 ]
    mass: 208.980400
    reduced_to: 91
  - symbol: Bi # 114
    coordinates: [  0.888888888888887,  0.777777777777779,  0.088993561461906 ]
    mass: 208.980400
    reduced_to: 91
  - symbol: Bi # 115
    coordinates: [  0.988888888888887,  0.877777777777779,  0.088993561461906 ]
    mass: 208.980400
    reduced_to: 91
  - symbol: Bi # 116
    coordinates: [  0.088888888888887,  0.977777777777779,  0.088993561461906 ]
    mass: 208.980400
    reduced_to: 91
  - symbol: Bi # 117
    coordinates: [  0.188888888888887,  0.077777777777779,  0.088993561461906 ]
    mass: 208.980400
    reduced_to: 91
  - symbol: Bi # 118
    coordinates: [  0.288888888888887,  0.177777777777779,  0.088993561461906 ]
    mass: 208.980400
    reduced_to: 91
  - symbol: Bi # 119
    coordinates: [  0.388888888888887,  0.277777777777779,  0.088993561461906 ]
    mass: 208.980400
    reduced_to: 91
  - symbol: Bi # 120
    coordinates: [  0.488888888888887,  0.377777777777779,  0.088993561461906 ]
    mass: 208.980400
    reduced_to: 91
  - symbol: Bi # 121
    coordinates: [  0.922222222222222,  0.144444444444445,  0.244339771871432 ]
    mass: 208.980400
    reduced_to: 121
  - symbol: Bi # 122
    coordinates: [  0.022222222222222,  0.244444444444445,  0.244339771871432 ]
    mass: 208.980400
    reduced_to: 121
  - symbol: Bi # 123
    coordinates: [  0.122222222222222,  0.344444444444445,  0.244339771871432 ]
    mass: 208.980400
    reduced_to: 121
  - symbol: Bi # 124
    coordinates: [  0.222222222222222,  0.444444444444445,  0.244339771871432 ]
    mass: 208.980400
    reduced_to: 121
  - symbol: Bi # 125
    coordinates: [  0.322222222222222,  0.544444444444445,  0.244339771871432 ]
    mass: 208.980400
    reduced_to: 121
  - symbol: Bi # 126
    coordinates: [  0.422222222222222,  0.644444444444445,  0.244339771871432 ]
    mass: 208.980400
    reduced_to: 121
  - symbol: Bi # 127
    coordinates: [  0.522222222222222,  0.744444444444445,  0.244339771871432 ]
    mass: 208.980400
    reduced_to: 121
  - symbol: Bi # 128
    coordinates: [  0.622222222222222,  0.844444444444445,  0.244339771871432 ]
    mass: 208.980400
    reduced_to: 121
  - symbol: Bi # 129
    coordinates: [  0.722222222222222,  0.944444444444445,  0.244339771871432 ]
    mass: 208.980400
    reduced_to: 121
  - symbol: Bi # 130
    coordinates: [  0.822222222222222,  0.044444444444445,  0.244339771871432 ]
    mass: 208.980400
    reduced_to: 121
  - symbol: Bi # 131
    coordinates: [  0.755555555555555,  0.311111111111112,  0.244339771871432 ]
    mass: 208.980400
    reduced_to: 121
  - symbol: Bi # 132
    coordinates: [  0.855555555555555,  0.411111111111112,  0.244339771871432 ]
    mass: 208.980400
    reduced_to: 121
  - symbol: Bi # 133
    coordinates: [  0.955555555555555,  0.511111111111112,  0.244339771871432 ]
    mass: 208.980400
    reduced_to: 121
  - symbol: Bi # 134
    coordinates: [  0.055555555555555,  0.611111111111112,  0.244339771871432 ]
    mass: 208.980400
    reduced_to: 121
  - symbol: Bi # 135
    coordinates: [  0.155555555555555,  0.711111111111112,  0.244339771871432 ]
    mass: 208.980400
    reduced_to: 121
  - symbol: Bi # 136
    coordinates: [  0.255555555555555,  0.811111111111112,  0.244339771871432 ]
    mass: 208.980400
    reduced_to: 121
  - symbol: Bi # 137
    coordinates: [  0.355555555555555,  0.911111111111112,  0.244339771871432 ]
    mass: 208.980400
    reduced_to: 121
  - symbol: Bi # 138
    coordinates: [  0.455555555555555,  0.011111111111112,  0.244339771871432 ]
    mass: 208.980400
    reduced_to: 121
  - symbol: Bi # 139
    coordinates: [  0.555555555555555,  0.111111111111112,  0.244339771871432 ]
    mass: 208.980400
    reduced_to: 121
  - symbol: Bi # 140
    coordinates: [  0.655555555555555,  0.211111111111112,  0.244339771871432 ]
    mass: 208.980400
    reduced_to: 121
  - symbol: Bi # 141
    coordinates: [  0.588888888888888,  0.477777777777778,  0.244339771871432 ]
    mass: 208.980400
    reduced_to: 121
  - symbol: Bi # 142
    coordinates: [  0.688888888888888,  0.577777777777778,  0.244339771871432 ]
    mass: 208.980400
    reduced_to: 121
  - symbol: Bi # 143
    coordinates: [  0.788888888888888,  0.677777777777778,  0.244339771871432 ]
    mass: 208.980400
    reduced_to: 121
  - symbol: Bi # 144
    coordinates: [  0.888888888888888,  0.777777777777778,  0.244339771871432 ]
    mass: 208.980400
    reduced_to: 121
  - symbol: Bi # 145
    coordinates: [  0.988888888888888,  0.877777777777778,  0.244339771871432 ]
    mass: 208.980400
    reduced_to: 121
  - symbol: Bi # 146
    coordinates: [  0.088888888888888,  0.977777777777778,  0.244339771871432 ]
    mass: 208.980400
    reduced_to: 121
  - symbol: Bi # 147
    coordinates: [  0.188888888888888,  0.077777777777778,  0.244339771871432 ]
    mass: 208.980400
    reduced_to: 121
  - symbol: Bi # 148
    coordinates: [  0.288888888888888,  0.177777777777778,  0.244339771871432 ]
    mass: 208.980400
    reduced_to: 121
  - symbol: Bi # 149
    coordinates: [  0.388888888888888,  0.277777777777779,  0.244339771871432 ]
    mass: 208.980400
    reduced_to: 121
  - symbol: Bi # 150
    coordinates: [  0.488888888888888,  0.377777777777779,  0.244339771871432 ]
    mass: 208.980400
    reduced_to: 121
  - symbol: Bi # 151
    coordinates: [  0.999999999999998,  0.000000000000001,  0.422326894795241 ]
    mass: 208.980400
    reduced_to: 91
  - symbol: Bi # 152
    coordinates: [  0.099999999999998,  0.100000000000001,  0.422326894795241 ]
    mass: 208.980400
    reduced_to: 91
  - symbol: Bi # 153
    coordinates: [  0.199999999999998,  0.200000000000001,  0.422326894795241 ]
    mass: 208.980400
    reduced_to: 91
  - symbol: Bi # 154
    coordinates: [  0.299999999999998,  0.300000000000001,  0.422326894795241 ]
    mass: 208.980400
    reduced_to: 91
  - symbol: Bi # 155
    coordinates: [  0.399999999999998,  0.400000000000001,  0.422326894795241 ]
    mass: 208.980400
    reduced_to: 91
  - symbol: Bi # 156
    coordinates: [  0.499999999999998,  0.500000000000001,  0.422326894795241 ]
    mass: 208.980400
    reduced_to: 91
  - symbol: Bi # 157
    coordinates: [  0.599999999999998,  0.600000000000001,  0.422326894795241 ]
    mass: 208.980400
    reduced_to: 91
  - symbol: Bi # 158
    coordinates: [  0.699999999999998,  0.700000000000001,  0.422326894795241 ]
    mass: 208.980400
    reduced_to: 91
  - symbol: Bi # 159
    coordinates: [  0.799999999999998,  0.800000000000001,  0.422326894795241 ]
    mass: 208.980400
    reduced_to: 91
  - symbol: Bi # 160
    coordinates: [  0.899999999999999,  0.900000000000001,  0.422326894795241 ]
    mass: 208.980400
    reduced_to: 91
  - symbol: Bi # 161
    coordinates: [  0.833333333333332,  0.166666666666668,  0.422326894795241 ]
    mass: 208.980400
    reduced_to: 91
  - symbol: Bi # 162
    coordinates: [  0.933333333333332,  0.266666666666668,  0.422326894795241 ]
    mass: 208.980400
    reduced_to: 91
  - symbol: Bi # 163
    coordinates: [  0.033333333333332,  0.366666666666668,  0.422326894795241 ]
    mass: 208.980400
    reduced_to: 91
  - symbol: Bi # 164
    coordinates: [  0.133333333333332,  0.466666666666668,  0.422326894795241 ]
    mass: 208.980400
    reduced_to: 91
  - symbol: Bi # 165
    coordinates: [  0.233333333333332,  0.566666666666668,  0.422326894795241 ]
    mass: 208.980400
    reduced_to: 91
  - symbol: Bi # 166
    coordinates: [  0.333333333333332,  0.666666666666668,  0.422326894795241 ]
    mass: 208.980400
    reduced_to: 91
  - symbol: Bi # 167
    coordinates: [  0.433333333333332,  0.766666666666668,  0.422326894795241 ]
    mass: 208.980400
    reduced_to: 91
  - symbol: Bi # 168
    coordinates: [  0.533333333333332,  0.866666666666668,  0.422326894795241 ]
    mass: 208.980400
    reduced_to: 91
  - symbol: Bi # 169
    coordinates: [  0.633333333333332,  0.966666666666668,  0.422326894795241 ]
    mass: 208.980400
    reduced_to: 91
  - symbol: Bi # 170
    coordinates: [  0.733333333333332,  0.066666666666668,  0.422326894795241 ]
    mass: 208.980400
    reduced_to: 91
  - symbol: Bi # 171
    coordinates: [  0.666666666666665,  0.333333333333334,  0.422326894795241 ]
    mass: 208.980400
    reduced_to: 91
  - symbol: Bi # 172
    coordinates: [  0.766666666666665,  0.433333333333334,  0.422326894795241 ]
    mass: 208.980400
    reduced_to: 91
  - symbol: Bi # 173
    coordinates: [  0.866666666666665,  0.533333333333334,  0.422326894795241 ]
    mass: 208.980400
    reduced_to: 91
  - symbol: Bi # 174
    coordinates: [  0.966666666666665,  0.633333333333334,  0.422326894795241 ]
    mass: 208.980400
    reduced_to: 91
  - symbol: Bi # 175
    coordinates: [  0.066666666666665,  0.733333333333335,  0.422326894795241 ]
    mass: 208.980400
    reduced_to: 91
  - symbol: Bi # 176
    coordinates: [  0.166666666666665,  0.833333333333334,  0.422326894795241 ]
    mass: 208.980400
    reduced_to: 91
  - symbol: Bi # 177
    coordinates: [  0.266666666666665,  0.933333333333334,  0.422326894795241 ]