phonopy:
  version: "2.27.0"
  frequency_unit_conversion_factor: 15.633302
  symmetry_tolerance: 1.00000e-03

space_group:
  type: "R-3m"
  number: 166
  Hall_symbol: "-R 3 2\""

primitive_matrix:
- [  0.666666666666667, -0.333333333333333, -0.333333333333333 ]
- [  0.333333333333333,  0.333333333333333, -0.666666666666667 ]
- [  0.333333333333333,  0.333333333333333,  0.333333333333333 ]

supercell_matrix:
- [   5,  -3,   0 ]
- [   5,   3,   0 ]
- [   0,   0,   1 ]

primitive_cell:
  lattice:
  - [     2.213425882122155,    -1.277922028874528,    13.909665937200884 ] # a
  - [     0.000000000000018,     2.555844057749047,    13.909665937200888 ] # b
  - [    -2.213425882122189,    -1.277922028874483,    13.909665937200886 ] # c
  points:
  - symbol: Ge # 1
    coordinates: [  0.000000000000001,  0.000000000000010,  0.999999999999997 ]
    mass: 72.640000
  - symbol: Bi # 2
    coordinates: [  0.422326894795235,  0.422326894795250,  0.422326894795232 ]
    mass: 208.980400
  - symbol: Bi # 3
    coordinates: [  0.577673105204766,  0.577673105204769,  0.577673105204761 ]
    mass: 208.980400
  - symbol: Te # 4
    coordinates: [  0.130341619370293,  0.130341619370306,  0.130341619370290 ]
    mass: 127.600000
  - symbol: Te # 5
    coordinates: [  0.869658380629710,  0.869658380629715,  0.869658380629704 ]
    mass: 127.600000
  - symbol: Te # 6
    coordinates: [  0.294008084520394,  0.294008084520403,  0.294008084520391 ]
    mass: 127.600000
  - symbol: Te # 7
    coordinates: [  0.705991915479607,  0.705991915479617,  0.705991915479603 ]
    mass: 127.600000
  reciprocal_lattice: # without 2pi
  - [     0.225894168871203,    -0.130420059206159,     0.023964150888904 ] # a*
  - [     0.000000000000003,     0.260840118412314,     0.023964150888904 ] # b*
  - [    -0.225894168871205,    -0.130420059206155,     0.023964150888904 ] # c*

unit_cell:
  lattice:
  - [     2.213425882122137,    -3.833766086623576,    -0.000000000000003 ] # a
  - [     2.213425882122207,     3.833766086623531,     0.000000000000001 ] # b
  - [    -0.000000000000017,     0.000000000000036,    41.728997811602667 ] # c
  points:
  - symbol: Ge # 1
    coordinates: [ -0.000000000000002,  0.000000000000005,  0.000000000000003 ]
    mass: 72.640000
    reduced_to: 1
  - symbol: Ge # 2
    coordinates: [  0.666666666666665,  0.333333333333339,  0.333333333333337 ]
    mass: 72.640000
    reduced_to: 1
  - symbol: Ge # 3
    coordinates: [  0.333333333333332,  0.666666666666673,  0.666666666666669 ]
    mass: 72.640000
    reduced_to: 1
  - symbol: Bi # 4
    coordinates: [  0.333333333333329,  0.666666666666674,  0.088993561461905 ]
    mass: 208.980400
    reduced_to: 4
  - symbol: Bi # 5
    coordinates: [  0.333333333333334,  0.666666666666671,  0.244339771871432 ]
    mass: 208.980400
    reduced_to: 5
  - symbol: Bi # 6
    coordinates: [ -0.000000000000004,  0.000000000000007,  0.422326894795239 ]
    mass: 208.980400
    reduced_to: 4
  - symbol: Bi # 7
    coordinates: [  0.000000000000000,  0.000000000000005,  0.577673105204766 ]
    mass: 208.980400
    reduced_to: 5
  - symbol: Bi # 8
    coordinates: [  0.666666666666663,  0.333333333333341,  0.755660228128575 ]
    mass: 208.980400
    reduced_to: 4
  - symbol: Bi # 9
    coordinates: [  0.666666666666668,  0.333333333333338,  0.911006438538099 ]
    mass: 208.980400
    reduced_to: 5
  - symbol: Te # 10
    coordinates: [ -0.000000000000003,  0.000000000000006,  0.130341619370296 ]
    mass: 127.600000
    reduced_to: 10
  - symbol: Te # 11
    coordinates: [  0.666666666666667,  0.333333333333338,  0.202991713963043 ]
    mass: 127.600000
    reduced_to: 11
  - symbol: Te # 12
    coordinates: [ -0.000000000000002,  0.000000000000005,  0.294008084520396 ]
    mass: 127.600000
    reduced_to: 12
  - symbol: Te # 13
    coordinates: [  0.666666666666664,  0.333333333333339,  0.039325248812943 ]
    mass: 127.600000
    reduced_to: 13
  - symbol: Te # 14
    coordinates: [  0.666666666666662,  0.333333333333340,  0.463674952703630 ]
    mass: 127.600000
    reduced_to: 10
  - symbol: Te # 15
    coordinates: [  0.333333333333334,  0.666666666666672,  0.536325047296376 ]
    mass: 127.600000
    reduced_to: 11
  - symbol: Te # 16
    coordinates: [  0.666666666666665,  0.333333333333340,  0.627341417853730 ]
    mass: 127.600000
    reduced_to: 12
  - symbol: Te # 17
    coordinates: [  0.333333333333332,  0.666666666666673,  0.372658582146276 ]
    mass: 127.600000
    reduced_to: 13
  - symbol: Te # 18
    coordinates: [  0.333333333333329,  0.666666666666673,  0.797008286036961 ]
    mass: 127.600000
    reduced_to: 10
  - symbol: Te # 19
    coordinates: [  0.000000000000001,  0.000000000000004,  0.869658380629709 ]
    mass: 127.600000
    reduced_to: 11
  - symbol: Te # 20
    coordinates: [  0.333333333333332,  0.666666666666672,  0.960674751187063 ]
    mass: 127.600000
    reduced_to: 12
  - symbol: Te # 21
    coordinates: [ -0.000000000000002,  0.000000000000006,  0.705991915479609 ]
    mass: 127.600000
    reduced_to: 13

supercell:
  lattice:
  - [    22.134258821221721,    -0.000000000000225,    -0.000000000000008 ] # a
  - [     0.000000000000210,    23.002596519741321,     0.000000000000013 ] # b
  - [    -0.000000000000017,     0.000000000000036,    41.728997811602667 ] # c
  points:
  - symbol: Ge # 1
    coordinates: [  0.000000000000000,  0.000000000000001,  0.000000000000003 ]
    mass: 72.640000
    reduced_to: 1
  - symbol: Ge # 2
    coordinates: [  0.100000000000000,  0.833333333333335,  0.000000000000003 ]
    mass: 72.640000
    reduced_to: 1
  - symbol: Ge # 3
    coordinates: [  0.200000000000000,  0.666666666666668,  0.000000000000003 ]
    mass: 72.640000
    reduced_to: 1
  - symbol: Ge # 4
    coordinates: [  0.300000000000000,  0.500000000000001,  0.000000000000003 ]
    mass: 72.640000
    reduced_to: 1
  - symbol: Ge # 5
    coordinates: [  0.400000000000000,  0.333333333333335,  0.000000000000003 ]
    mass: 72.640000
    reduced_to: 1
  - symbol: Ge # 6
    coordinates: [  0.500000000000000,  0.166666666666668,  0.000000000000003 ]
    mass: 72.640000
    reduced_to: 1
  - symbol: Ge # 7
    coordinates: [  0.600000000000000,  0.000000000000001,  0.000000000000003 ]
    mass: 72.640000
    reduced_to: 1
  - symbol: Ge # 8
    coordinates: [  0.700000000000000,  0.833333333333335,  0.000000000000003 ]
    mass: 72.640000
    reduced_to: 1
  - symbol: Ge # 9
    coordinates: [  0.100000000000000,  0.166666666666668,  0.000000000000003 ]
    mass: 72.640000
    reduced_to: 1
  - symbol: Ge # 10
    coordinates: [  0.200000000000000,  0.000000000000001,  0.000000000000003 ]
    mass: 72.640000
    reduced_to: 1
  - symbol: Ge # 11
    coordinates: [  0.300000000000000,  0.833333333333335,  0.000000000000003 ]
    mass: 72.640000
    reduced_to: 1
  - symbol: Ge # 12
    coordinates: [  0.400000000000000,  0.666666666666668,  0.000000000000003 ]
    mass: 72.640000
    reduced_to: 1
  - symbol: Ge # 13
    coordinates: [  0.500000000000000,  0.500000000000001,  0.000000000000003 ]
    mass: 72.640000
    reduced_to: 1
  - symbol: Ge # 14
    coordinates: [  0.600000000000000,  0.333333333333335,  0.000000000000003 ]
    mass: 72.640000
    reduced_to: 1
  - symbol: Ge # 15
    coordinates: [  0.700000000000000,  0.166666666666668,  0.000000000000003 ]
    mass: 72.640000
    reduced_to: 1
  - symbol: Ge # 16
    coordinates: [  0.800000000000000,  0.000000000000001,  0.000000000000003 ]
    mass: 72.640000
    reduced_to: 1
  - symbol: Ge # 17
    coordinates: [  0.200000000000000,  0.333333333333335,  0.000000000000003 ]
    mass: 72.640000
    reduced_to: 1
  - symbol: Ge # 18
    coordinates: [  0.300000000000000,  0.166666666666668,  0.000000000000003 ]
    mass: 72.640000
    reduced_to: 1
  - symbol: Ge # 19
    coordinates: [  0.400000000000000,  0.000000000000001,  0.000000000000003 ]
    mass: 72.640000
    reduced_to: 1
  - symbol: Ge # 20
    coordinates: [  0.500000000000000,  0.833333333333335,  0.000000000000003 ]
    mass: 72.640000
    reduced_to: 1
  - symbol: Ge # 21
    coordinates: [  0.600000000000000,  0.666666666666668,  0.000000000000003 ]
    mass: 72.640000
    reduced_to: 1
  - symbol: Ge # 22
    coordinates: [  0.700000000000000,  0.500000000000001,  0.000000000000003 ]
    mass: 72.640000
    reduced_to: 1
  - symbol: Ge # 23
    coordinates: [  0.800000000000000,  0.333333333333334,  0.000000000000003 ]
    mass: 72.640000
    reduced_to: 1
  - symbol: Ge # 24
    coordinates: [  0.900000000000000,  0.166666666666668,  0.000000000000003 ]
    mass: 72.640000
    reduced_to: 1
  - symbol: Ge # 25
    coordinates: [  0.800000000000000,  0.666666666666668,  0.000000000000003 ]
    mass: 72.640000
    reduced_to: 1
  - symbol: Ge # 26
    coordinates: [  0.900000000000000,  0.500000000000001,  0.000000000000003 ]
    mass: 72.640000
    reduced_to: 1
  - symbol: Ge # 27
    coordinates: [  0.000000000000000,  0.333333333333335,  0.000000000000003 ]
    mass: 72.640000
    reduced_to: 1
  - symbol: Ge # 28
    coordinates: [  0.900000000000000,  0.833333333333334,  0.000000000000003 ]
    mass: 72.640000
    reduced_to: 1
  - symbol: Ge # 29
    coordinates: [  0.000000000000000,  0.666666666666668,  0.000000000000003 ]
    mass: 72.640000
    reduced_to: 1
  - symbol: Ge # 30
    coordinates: [  0.100000000000000,  0.500000000000001,  0.000000000000003 ]
    mass: 72.640000
    reduced_to: 1
  - symbol: Ge # 31
    coordinates: [  0.100000000000000,  0.944444444444446,  0.333333333333337 ]
    mass: 72.640000
    reduced_to: 1
  - symbol: Ge # 32
    coordinates: [  0.200000000000000,  0.777777777777779,  0.333333333333337 ]
    mass: 72.640000
    reduced_to: 1
  - symbol: Ge # 33
    coordinates: [  0.300000000000000,  0.611111111111112,  0.333333333333337 ]
    mass: 72.640000
    reduced_to: 1
  - symbol: Ge # 34
    coordinates: [  0.400000000000000,  0.444444444444446,  0.333333333333337 ]
    mass: 72.640000
    reduced_to: 1
  - symbol: Ge # 35
    coordinates: [  0.500000000000000,  0.277777777777779,  0.333333333333337 ]
    mass: 72.640000
    reduced_to: 1
  - symbol: Ge # 36
    coordinates: [  0.600000000000000,  0.111111111111113,  0.333333333333337 ]
    mass: 72.640000
    reduced_to: 1
  - symbol: Ge # 37
    coordinates: [  0.700000000000000,  0.944444444444446,  0.333333333333337 ]
    mass: 72.640000
    reduced_to: 1
  - symbol: Ge # 38
    coordinates: [  0.800000000000000,  0.777777777777779,  0.333333333333337 ]
    mass: 72.640000
    reduced_to: 1
  - symbol: Ge # 39
    coordinates: [  0.200000000000000,  0.111111111111112,  0.333333333333337 ]
    mass: 72.640000
    reduced_to: 1
  - symbol: Ge # 40
    coordinates: [  0.300000000000000,  0.944444444444446,  0.333333333333337 ]
    mass: 72.640000
    reduced_to: 1
  - symbol: Ge # 41
    coordinates: [  0.400000000000000,  0.777777777777779,  0.333333333333337 ]
    mass: 72.640000
    reduced_to: 1
  - symbol: Ge # 42
    coordinates: [  0.500000000000000,  0.611111111111112,  0.333333333333337 ]
    mass: 72.640000
    reduced_to: 1
  - symbol: Ge # 43
    coordinates: [  0.600000000000000,  0.444444444444446,  0.333333333333337 ]
    mass: 72.640000
    reduced_to: 1
  - symbol: Ge # 44
    coordinates: [  0.700000000000000,  0.277777777777779,  0.333333333333337 ]
    mass: 72.640000
    reduced_to: 1
  - symbol: Ge # 45
    coordinates: [  0.800000000000000,  0.111111111111112,  0.333333333333337 ]
    mass: 72.640000
    reduced_to: 1
  - symbol: Ge # 46
    coordinates: [  0.900000000000000,  0.944444444444446,  0.333333333333337 ]
    mass: 72.640000
    reduced_to: 1
  - symbol: Ge # 47
    coordinates: [  0.300000000000000,  0.277777777777779,  0.333333333333337 ]
    mass: 72.640000
    reduced_to: 1
  - symbol: Ge # 48
    coordinates: [  0.400000000000000,  0.111111111111112,  0.333333333333337 ]
    mass: 72.640000
    reduced_to: 1
  - symbol: Ge # 49
    coordinates: [  0.500000000000000,  0.944444444444446,  0.333333333333337 ]
    mass: 72.640000
    reduced_to: 1
  - symbol: Ge # 50
    coordinates: [  0.600000000000000,  0.777777777777779,  0.333333333333337 ]
    mass: 72.640000
    reduced_to: 1
  - symbol: Ge # 51
    coordinates: [  0.700000000000000,  0.611111111111112,  0.333333333333337 ]
    mass: 72.640000
    reduced_to: 1
  - symbol: Ge # 52
    coordinates: [  0.800000000000000,  0.444444444444446,  0.333333333333337 ]
    mass: 72.640000
    reduced_to: 1
  - symbol: Ge # 53
    coordinates: [  0.900000000000000,  0.277777777777779,  0.333333333333337 ]
    mass: 72.640000
    reduced_to: 1
  - symbol: Ge # 54
    coordinates: [  0.000000000000000,  0.111111111111113,  0.333333333333337 ]
    mass: 72.640000
    reduced_to: 1
  - symbol: Ge # 55
    coordinates: [  0.900000000000000,  0.611111111111112,  0.333333333333337 ]
    mass: 72.640000
    reduced_to: 1
  - symbol: Ge # 56
    coordinates: [  0.000000000000000,  0.444444444444446,  0.333333333333337 ]
    mass: 72.640000
    reduced_to: 1
  - symbol: Ge # 57
    coordinates: [  0.100000000000001,  0.277777777777779,  0.333333333333337 ]
    mass: 72.640000
    reduced_to: 1
  - symbol: Ge # 58
    coordinates: [  0.000000000000000,  0.777777777777779,  0.333333333333337 ]
    mass: 72.640000
    reduced_to: 1
  - symbol: Ge # 59
    coordinates: [  0.100000000000001,  0.611111111111112,  0.333333333333337 ]
    mass: 72.640000
    reduced_to: 1
  - symbol: Ge # 60
    coordinates: [  0.200000000000000,  0.444444444444446,  0.333333333333337 ]
    mass: 72.640000
    reduced_to: 1
  - symbol: Ge # 61
    coordinates: [  0.100000000000000,  0.055555555555557,  0.666666666666669 ]
    mass: 72.640000
    reduced_to: 1
  - symbol: Ge # 62
    coordinates: [  0.200000000000000,  0.888888888888890,  0.666666666666669 ]
    mass: 72.640000
    reduced_to: 1
  - symbol: Ge # 63
    coordinates: [  0.300000000000000,  0.722222222222223,  0.666666666666669 ]
    mass: 72.640000
    reduced_to: 1
  - symbol: Ge # 64
    coordinates: [  0.400000000000000,  0.555555555555557,  0.666666666666669 ]
    mass: 72.640000
    reduced_to: 1
  - symbol: Ge # 65
    coordinates: [  0.500000000000001,  0.388888888888890,  0.666666666666669 ]
    mass: 72.640000
    reduced_to: 1
  - symbol: Ge # 66
    coordinates: [  0.600000000000001,  0.222222222222223,  0.666666666666669 ]
    mass: 72.640000
    reduced_to: 1
  - symbol: Ge # 67
    coordinates: [  0.700000000000001,  0.055555555555557,  0.666666666666669 ]
    mass: 72.640000
    reduced_to: 1
  - symbol: Ge # 68
    coordinates: [  0.800000000000001,  0.888888888888890,  0.666666666666669 ]
    mass: 72.640000
    reduced_to: 1
  - symbol: Ge # 69
    coordinates: [  0.200000000000000,  0.222222222222223,  0.666666666666669 ]
    mass: 72.640000
    reduced_to: 1
  - symbol: Ge # 70
    coordinates: [  0.300000000000000,  0.055555555555557,  0.666666666666669 ]
    mass: 72.640000
    reduced_to: 1
  - symbol: Ge # 71
    coordinates: [  0.400000000000000,  0.888888888888890,  0.666666666666669 ]
    mass: 72.640000
    reduced_to: 1
  - symbol: Ge # 72
    coordinates: [  0.500000000000000,  0.722222222222224,  0.666666666666669 ]
    mass: 72.640000
    reduced_to: 1
  - symbol: Ge # 73
    coordinates: [  0.600000000000001,  0.555555555555557,  0.666666666666669 ]
    mass: 72.640000
    reduced_to: 1
  - symbol: Ge # 74
    coordinates: [  0.700000000000001,  0.388888888888890,  0.666666666666669 ]
    mass: 72.640000
    reduced_to: 1
  - symbol: Ge # 75
    coordinates: [  0.800000000000001,  0.222222222222223,  0.666666666666669 ]
    mass: 72.640000
    reduced_to: 1
  - symbol: Ge # 76
    coordinates: [  0.900000000000001,  0.055555555555557,  0.666666666666669 ]
    mass: 72.640000
    reduced_to: 1
  - symbol: Ge # 77
    coordinates: [  0.300000000000000,  0.388888888888890,  0.666666666666669 ]
    mass: 72.640000
    reduced_to: 1
  - symbol: Ge # 78
    coordinates: [  0.400000000000000,  0.222222222222223,  0.666666666666669 ]
    mass: 72.640000
    reduced_to: 1
  - symbol: Ge # 79
    coordinates: [  0.500000000000000,  0.055555555555557,  0.666666666666669 ]
    mass: 72.640000
    reduced_to: 1
  - symbol: Ge # 80
    coordinates: [  0.600000000000001,  0.888888888888890,  0.666666666666669 ]
    mass: 72.640000
    reduced_to: 1
  - symbol: Ge # 81
    coordinates: [  0.700000000000001,  0.722222222222223,  0.666666666666669 ]
    mass: 72.640000
    reduced_to: 1
  - symbol: Ge # 82
    coordinates: [  0.800000000000000,  0.555555555555557,  0.666666666666669 ]
    mass: 72.640000
    reduced_to: 1
  - symbol: Ge # 83
    coordinates: [  0.900000000000001,  0.388888888888890,  0.666666666666669 ]
    mass: 72.640000
    reduced_to: 1
  - symbol: Ge # 84
    coordinates: [  0.000000000000001,  0.222222222222224,  0.666666666666669 ]
    mass: 72.640000
    reduced_to: 1
  - symbol: Ge # 85
    coordinates: [  0.900000000000000,  0.722222222222223,  0.666666666666669 ]
    mass: 72.640000
    reduced_to: 1
  - symbol: Ge # 86
    coordinates: [  0.000000000000001,  0.555555555555557,  0.666666666666669 ]
    mass: 72.640000
    reduced_to: 1
  - symbol: Ge # 87
    coordinates: [  0.100000000000001,  0.388888888888890,  0.666666666666669 ]
    mass: 72.640000
    reduced_to: 1
  - symbol: Ge # 88
    coordinates: [  0.000000000000000,  0.888888888888890,  0.666666666666669 ]
    mass: 72.640000
    reduced_to: 1
  - symbol: Ge # 89
    coordinates: [  0.100000000000001,  0.722222222222223,  0.666666666666669 ]
    mass: 72.640000
    reduced_to: 1
  - symbol: Ge # 90
    coordinates: [  0.200000000000001,  0.555555555555557,  0.666666666666669 ]
    mass: 72.640000
    reduced_to: 1
  - symbol: Bi # 91
    coordinates: [  0.100000000000000,  0.055555555555557,  0.088993561461905 ]
    mass: 208.980400
    reduced_to: 91
  - symbol: Bi # 92
    coordinates: [  0.200000000000000,  0.888888888888891,  0.088993561461905 ]
    mass: 208.980400
    reduced_to: 91
  - symbol: Bi # 93
    coordinates: [  0.300000000000000,  0.722222222222224,  0.088993561461905 ]
    mass: 208.980400
    reduced_to: 91
  - symbol: Bi # 94
    coordinates: [  0.400000000000000,  0.555555555555557,  0.088993561461905 ]
    mass: 208.980400
    reduced_to: 91
  - symbol: Bi # 95
    coordinates: [  0.500000000000000,  0.388888888888891,  0.088993561461905 ]
    mass: 208.980400
    reduced_to: 91
  - symbol: Bi # 96
    coordinates: [  0.600000000000000,  0.222222222222224,  0.088993561461905 ]
    mass: 208.980400
    reduced_to: 91
  - symbol: Bi # 97
    coordinates: [  0.700000000000000,  0.055555555555557,  0.088993561461905 ]
    mass: 208.980400
    reduced_to: 91
  - symbol: Bi # 98
    coordinates: [  0.800000000000000,  0.888888888888891,  0.088993561461905 ]
    mass: 208.980400
    reduced_to: 91
  - symbol: Bi # 99
    coordinates: [  0.200000000000000,  0.222222222222224,  0.088993561461905 ]
    mass: 208.980400
    reduced_to: 91
  - symbol: Bi # 100
    coordinates: [  0.300000000000000,  0.055555555555557,  0.088993561461905 ]
    mass: 208.980400
    reduced_to: 91
  - symbol: Bi # 101
    coordinates: [  0.400000000000000,  0.888888888888891,  0.088993561461905 ]
    mass: 208.980400
    reduced_to: 91
  - symbol: Bi # 102
    coordinates: [  0.500000000000000,  0.722222222222224,  0.088993561461905 ]
    mass: 208.980400
    reduced_to: 91
  - symbol: Bi # 103
    coordinates: [  0.600000000000000,  0.555555555555557,  0.088993561461905 ]
    mass: 208.980400
    reduced_to: 91
  - symbol: Bi # 104
    coordinates: [  0.700000000000000,  0.388888888888891,  0.088993561461905 ]
    mass: 208.980400
    reduced_to: 91
  - symbol: Bi # 105
    coordinates: [  0.800000000000000,  0.222222222222224,  0.088993561461905 ]
    mass: 208.980400
    reduced_to: 91
  - symbol: Bi # 106
    coordinates: [  0.900000000000000,  0.055555555555557,  0.088993561461905 ]
    mass: 208.980400
    reduced_to: 91
  - symbol: Bi # 107
    coordinates: [  0.300000000000000,  0.388888888888891,  0.088993561461905 ]
    mass: 208.980400
    reduced_to: 91
  - symbol: Bi # 108
    coordinates: [  0.400000000000000,  0.222222222222224,  0.088993561461905 ]
    mass: 208.980400
    reduced_to: 91
  - symbol: Bi # 109
    coordinates: [  0.500000000000000,  0.055555555555557,  0.088993561461905 ]
    mass: 208.980400
    reduced_to: 91
  - symbol: Bi # 110
    coordinates: [  0.600000000000000,  0.888888888888891,  0.088993561461905 ]
    mass: 208.980400
    reduced_to: 91
  - symbol: Bi # 111
    coordinates: [  0.700000000000000,  0.722222222222224,  0.088993561461905 ]
    mass: 208.980400
    reduced_to: 91
  - symbol: Bi # 112
    coordinates: [  0.800000000000000,  0.555555555555557,  0.088993561461905 ]
    mass: 208.980400
    reduced_to: 91
  - symbol: Bi # 113
    coordinates: [  0.900000000000000,  0.388888888888891,  0.088993561461905 ]
    mass: 208.980400
    reduced_to: 91
  - symbol: Bi # 114
    coordinates: [  0.000000000000000,  0.222222222222224,  0.088993561461905 ]
    mass: 208.980400
    reduced_to: 91
  - symbol: Bi # 115
    coordinates: [  0.900000000000000,  0.722222222222224,  0.088993561461905 ]
    mass: 208.980400
    reduced_to: 91
  - symbol: Bi # 116
    coordinates: [  0.000000000000000,  0.555555555555557,  0.088993561461905 ]
    mass: 208.980400
    reduced_to: 91
  - symbol: Bi # 117
    coordinates: [  0.100000000000000,  0.388888888888891,  0.088993561461905 ]
    mass: 208.980400
    reduced_to: 91
  - symbol: Bi # 118
    coordinates: [  0.000000000000000,  0.888888888888891,  0.088993561461905 ]
    mass: 208.980400
    reduced_to: 91
  - symbol: Bi # 119
    coordinates: [  0.100000000000000,  0.722222222222224,  0.088993561461905 ]
    mass: 208.980400
    reduced_to: 91
  - symbol: Bi # 120
    coordinates: [  0.200000000000000,  0.555555555555557,  0.088993561461905 ]
    mass: 208.980400
    reduced_to: 91
  - symbol: Bi # 121
    coordinates: [  0.100000000000001,  0.055555555555556,  0.244339771871432 ]
    mass: 208.980400
    reduced_to: 121
  - symbol: Bi # 122
    coordinates: [  0.200000000000000,  0.888888888888890,  0.244339771871432 ]
    mass: 208.980400
    reduced_to: 121
  - symbol: Bi # 123
    coordinates: [  0.300000000000000,  0.722222222222223,  0.244339771871432 ]
    mass: 208.980400
    reduced_to: 121
  - symbol: Bi # 124
    coordinates: [  0.400000000000001,  0.555555555555556,  0.244339771871432 ]
    mass: 208.980400
    reduced_to: 121
  - symbol: Bi # 125
    coordinates: [  0.500000000000001,  0.388888888888890,  0.244339771871432 ]
    mass: 208.980400
    reduced_to: 121
  - symbol: Bi # 126
    coordinates: [  0.600000000000001,  0.222222222222223,  0.244339771871432 ]
    mass: 208.980400
    reduced_to: 121
  - symbol: Bi # 127
    coordinates: [  0.700000000000001,  0.055555555555556,  0.244339771871432 ]
    mass: 208.980400
    reduced_to: 121
  - symbol: Bi # 128
    coordinates: [  0.800000000000000,  0.888888888888890,  0.244339771871432 ]
    mass: 208.980400
    reduced_to: 121
  - symbol: Bi # 129
    coordinates: [  0.200000000000001,  0.222222222222223,  0.244339771871432 ]
    mass: 208.980400
    reduced_to: 121
  - symbol: Bi # 130
    coordinates: [  0.300000000000000,  0.055555555555556,  0.244339771871432 ]
    mass: 208.980400
    reduced_to: 121
  - symbol: Bi # 131
    coordinates: [  0.400000000000001,  0.888888888888890,  0.244339771871432 ]
    mass: 208.980400
    reduced_to: 121
  - symbol: Bi # 132
    coordinates: [  0.500000000000001,  0.722222222222223,  0.244339771871432 ]
    mass: 208.980400
    reduced_to: 121
  - symbol: Bi # 133
    coordinates: [  0.600000000000001,  0.555555555555556,  0.244339771871432 ]
    mass: 208.980400
    reduced_to: 121
  - symbol: Bi # 134
    coordinates: [  0.700000000000001,  0.388888888888890,  0.244339771871432 ]
    mass: 208.980400
    reduced_to: 121
  - symbol: Bi # 135
    coordinates: [  0.800000000000000,  0.222222222222223,  0.244339771871432 ]
    mass: 208.980400
    reduced_to: 121
  - symbol: Bi # 136
    coordinates: [  0.900000000000000,  0.055555555555556,  0.244339771871432 ]
    mass: 208.980400
    reduced_to: 121
  - symbol: Bi # 137
    coordinates: [  0.300000000000000,  0.388888888888889,  0.244339771871432 ]
    mass: 208.980400
    reduced_to: 121
  - symbol: Bi # 138
    coordinates: [  0.400000000000001,  0.222222222222223,  0.244339771871432 ]
    mass: 208.980400
    reduced_to: 121
  - symbol: Bi # 139
    coordinates: [  0.500000000000001,  0.055555555555556,  0.244339771871432 ]
    mass: 208.980400
    reduced_to: 121
  - symbol: Bi # 140
    coordinates: [  0.600000000000001,  0.888888888888890,  0.244339771871432 ]
    mass: 208.980400
    reduced_to: 121
  - symbol: Bi # 141
    coordinates: [  0.700000000000001,  0.722222222222223,  0.244339771871432 ]
    mass: 208.980400
    reduced_to: 121
  - symbol: Bi # 142
    coordinates: [  0.800000000000001,  0.555555555555556,  0.244339771871432 ]
    mass: 208.980400
    reduced_to: 121
  - symbol: Bi # 143
    coordinates: [  0.900000000000001,  0.388888888888890,  0.244339771871432 ]
    mass: 208.980400
    reduced_to: 121
  - symbol: Bi # 144
    coordinates: [  0.000000000000000,  0.222222222222223,  0.244339771871432 ]
    mass: 208.980400
    reduced_to: 121
  - symbol: Bi # 145
    coordinates: [  0.900000000000001,  0.722222222222223,  0.244339771871432 ]
    mass: 208.980400
    reduced_to: 121
  - symbol: Bi # 146
    coordinates: [  0.000000000000000,  0.555555555555556,  0.244339771871432 ]
    mass: 208.980400
    reduced_to: 121
  - symbol: Bi # 147
    coordinates: [  0.100000000000001,  0.388888888888890,  0.244339771871432 ]
    mass: 208.980400
    reduced_to: 121
  - symbol: Bi # 148
    coordinates: [  0.000000000000001,  0.888888888888890,  0.244339771871432 ]
    mass: 208.980400
    reduced_to: 121
  - symbol: Bi # 149
    coordinates: [  0.100000000000001,  0.722222222222223,  0.244339771871432 ]
    mass: 208.980400
    reduced_to: 121
  - symbol: Bi # 150
    coordinates: [  0.200000000000001,  0.555555555555556,  0.244339771871432 ]
    mass: 208.980400
    reduced_to: 121
  - symbol: Bi # 151
    coordinates: [  0.000000000000000,  0.000000000000002,  0.422326894795239 ]
    mass: 208.980400
    reduced_to: 91
  - symbol: Bi # 152
    coordinates: [  0.100000000000000,  0.833333333333335,  0.422326894795239 ]
    mass: 208.980400
    reduced_to: 91
  - symbol: Bi # 153
    coordinates: [  0.200000000000000,  0.666666666666669,  0.422326894795239 ]
    mass: 208.980400
    reduced_to: 91
  - symbol: Bi # 154
    coordinates: [  0.300000000000000,  0.500000000000002,  0.422326894795239 ]
    mass: 208.980400
    reduced_to: 91
  - symbol: Bi # 155
    coordinates: [  0.400000000000000,  0.333333333333335,  0.422326894795239 ]
    mass: 208.980400
    reduced_to: 91
  - symbol: Bi # 156
    coordinates: [  0.500000000000000,  0.166666666666669,  0.422326894795239 ]
    mass: 208.980400
    reduced_to: 91
  - symbol: Bi # 157
    coordinates: [  0.600000000000000,  0.000000000000002,  0.422326894795239 ]
    mass: 208.980400
    reduced_to: 91
  - symbol: Bi # 158
    coordinates: [  0.700000000000000,  0.833333333333335,  0.422326894795239 ]
    mass: 208.980400
    reduced_to: 91
  - symbol: Bi # 159
    coordinates: [  0.100000000000000,  0.166666666666668,  0.422326894795239 ]
    mass: 208.980400
    reduced_to: 91
  - symbol: Bi # 160
    coordinates: [  0.200000000000000,  0.000000000000002,  0.422326894795239 ]
    mass: 208.980400
    reduced_to: 91
  - symbol: Bi # 161
    coordinates: [  0.300000000000000,  0.833333333333335,  0.422326894795239 ]
    mass: 208.980400
    reduced_to: 91
  - symbol: Bi # 162
    coordinates: [  0.400000000000000,  0.666666666666669,  0.422326894795239 ]
    mass: 208.980400
    reduced_to: 91
  - symbol: Bi # 163
    coordinates: [  0.500000000000000,  0.500000000000002,  0.422326894795239 ]
    mass: 208.980400
    reduced_to: 91
  - symbol: Bi # 164
    coordinates: [  0.600000000000000,  0.333333333333335,  0.422326894795239 ]
    mass: 208.980400
    reduced_to: 91
  - symbol: Bi # 165
    coordinates: [  0.700000000000000,  0.166666666666669,  0.422326894795239 ]
    mass: 208.980400
    reduced_to: 91
  - symbol: Bi # 166
    coordinates: [  0.800000000000000,  0.000000000000002,  0.422326894795239 ]
    mass: 208.980400
    reduced_to: 91
  - symbol: Bi # 167
    coordinates: [  0.200000000000000,  0.333333333333335,  0.422326894795239 ]
    mass: 208.980400
    reduced_to: 91
  - symbol: Bi # 168
    coordinates: [  0.300000000000000,  0.166666666666669,  0.422326894795239 ]
    mass: 208.980400
    reduced_to: 91
  - symbol: Bi # 169
    coordinates: [  0.400000000000000,  0.000000000000002,  0.422326894795239 ]
    mass: 208.980400
    reduced_to: 91
  - symbol: Bi # 170
    coordinates: [  0.500000000000000,  0.833333333333335,  0.422326894795239 ]
    mass: 208.980400
    reduced_to: 91
  - symbol: Bi # 171
    coordinates: [  0.600000000000000,  0.666666666666669,  0.422326894795239 ]
    mass: 208.980400
    reduced_to: 91
  - symbol: Bi # 172
    coordinates: [  0.700000000000000,  0.500000000000002,  0.422326894795239 ]
    mass: 208.980400
    reduced_to: 91
  - symbol: Bi # 173
    coordinates: [  0.800000000000000,  0.333333333333335,  0.422326894795239 ]
    mass: 208.980400
    reduced_to: 91
  - symbol: Bi # 174
    coordinates: [  0.900000000000000,  0.166666666666669,  0.422326894795239 ]
    mass: 208.980400
    reduced_to: 91
  - symbol: Bi # 175
    coordinates: [  0.800000000000000,  0.666666666666669,  0.422326894795239 ]
    mass: 208.980400
    reduced_to: 91
  - symbol: Bi # 176
    coordinates: [  0.900000000000000,  0.500000000000002,  0.422326894795239 ]
    mass: 208.980400
    reduced_to: 91
  - symbol: Bi # 177
    coordinates: [  0.000000000000000,  0.333333333333335,  0.422326894795239 ]