phonopy:
  version: "2.27.0"
  frequency_unit_conversion_factor: 15.633302
  symmetry_tolerance: 1.00000e-04

space_group:
  type: "P2_12_12_1"
  number: 19
  Hall_symbol: "P 2ac 2ab"

primitive_matrix:
- [  1.000000000000000, -0.000000000000000,  0.000000000000000 ]
- [ -0.000000000000000,  1.000000000000000,  0.000000000000000 ]
- [ -0.000000000000000,  0.000000000000000,  1.000000000000000 ]

supercell_matrix:
- [   5,   0,   0 ]
- [   0,   3,   0 ]
- [   0,   0,   3 ]

primitive_cell:
  lattice:
  - [     4.565020509644454,    -0.000000000000001,     0.000000000000000 ] # a
  - [    -0.000000000000001,     7.066995511322107,    -0.000000000000004 ] # b
  - [    -0.000000000000000,    -0.000000000000006,     7.706309984041472 ] # c
  points:
  - symbol: Ag # 1
    coordinates: [  0.021198288032607,  0.234566645854973,  0.874659558130213 ]
    mass: 107.868200
  - symbol: Ag # 2
    coordinates: [  0.684838777242624,  0.883245600862134,  0.947912599680683 ]
    mass: 107.868200
  - symbol: Ag # 3
    coordinates: [  0.478801711967392,  0.765433354145028,  0.374659558130214 ]
    mass: 107.868200
  - symbol: Ag # 4
    coordinates: [  0.184838777242628,  0.616754399137864,  0.052087400319314 ]
    mass: 107.868200
  - symbol: Ag # 5
    coordinates: [  0.815161222757377,  0.116754399137865,  0.447912599680682 ]
    mass: 107.868200
  - symbol: Ag # 6
    coordinates: [  0.978801711967398,  0.734566645854975,  0.625340441869786 ]
    mass: 107.868200
  - symbol: Ag # 7
    coordinates: [  0.315161222757372,  0.383245600862136,  0.552087400319315 ]
    mass: 107.868200
  - symbol: Ag # 8
    coordinates: [  0.521198288032604,  0.265433354145026,  0.125340441869786 ]
    mass: 107.868200
  - symbol: Se # 9
    coordinates: [  0.880990892199566,  0.493500852101172,  0.336053550148067 ]
    mass: 78.960000
  - symbol: Se # 10
    coordinates: [  0.119009107800440,  0.993500852101177,  0.163946449851935 ]
    mass: 78.960000
  - symbol: Se # 11
    coordinates: [  0.380990892199560,  0.006499147898822,  0.663946449851934 ]
    mass: 78.960000
  - symbol: Se # 12
    coordinates: [  0.619009107800436,  0.506499147898826,  0.836053550148068 ]
    mass: 78.960000
  reciprocal_lattice: # without 2pi
  - [     0.219057066203167,     0.000000000000000,     0.000000000000000 ] # a*
  - [     0.000000000000000,     0.141502849180800,     0.000000000000000 ] # b*
  - [    -0.000000000000000,     0.000000000000000,     0.129763791240015 ] # c*

unit_cell:
  lattice:
  - [     4.565020509644453,    -0.000000000000001,     0.000000000000000 ] # a
  - [    -0.000000000000001,     7.066995511322107,    -0.000000000000004 ] # b
  - [    -0.000000000000000,    -0.000000000000006,     7.706309984041472 ] # c
  points:
  - symbol: Ag # 1
    coordinates: [  0.021198288032607,  0.234566645854973,  0.874659558130213 ]
    mass: 107.868200
    reduced_to: 1
  - symbol: Ag # 2
    coordinates: [  0.684838777242624,  0.883245600862134,  0.947912599680683 ]
    mass: 107.868200
    reduced_to: 2
  - symbol: Ag # 3
    coordinates: [  0.478801711967392,  0.765433354145028,  0.374659558130214 ]
    mass: 107.868200
    reduced_to: 3
  - symbol: Ag # 4
    coordinates: [  0.184838777242628,  0.616754399137864,  0.052087400319314 ]
    mass: 107.868200
    reduced_to: 4
  - symbol: Ag # 5
    coordinates: [  0.815161222757377,  0.116754399137865,  0.447912599680682 ]
    mass: 107.868200
    reduced_to: 5
  - symbol: Ag # 6
    coordinates: [  0.978801711967398,  0.734566645854975,  0.625340441869786 ]
    mass: 107.868200
    reduced_to: 6
  - symbol: Ag # 7
    coordinates: [  0.315161222757372,  0.383245600862136,  0.552087400319315 ]
    mass: 107.868200
    reduced_to: 7
  - symbol: Ag # 8
    coordinates: [  0.521198288032604,  0.265433354145026,  0.125340441869786 ]
    mass: 107.868200
    reduced_to: 8
  - symbol: Se # 9
    coordinates: [  0.880990892199566,  0.493500852101172,  0.336053550148067 ]
    mass: 78.960000
    reduced_to: 9
  - symbol: Se # 10
    coordinates: [  0.119009107800440,  0.993500852101177,  0.163946449851935 ]
    mass: 78.960000
    reduced_to: 10
  - symbol: Se # 11
    coordinates: [  0.380990892199560,  0.006499147898822,  0.663946449851934 ]
    mass: 78.960000
    reduced_to: 11
  - symbol: Se # 12
    coordinates: [  0.619009107800436,  0.506499147898826,  0.836053550148068 ]
    mass: 78.960000
    reduced_to: 12

supercell:
  lattice:
  - [    22.825102548222269,    -0.000000000000003,     0.000000000000002 ] # a
  - [    -0.000000000000002,    21.200986533966322,    -0.000000000000012 ] # b
  - [    -0.000000000000001,    -0.000000000000019,    23.118929952124418 ] # c
  points:
  - symbol: Ag # 1
    coordinates: [  0.004239657606521,  0.078188881951658,  0.291553186043404 ]
    mass: 107.868200
    reduced_to: 1
  - symbol: Ag # 2
    coordinates: [  0.204239657606521,  0.078188881951658,  0.291553186043404 ]
    mass: 107.868200
    reduced_to: 1
  - symbol: Ag # 3
    coordinates: [  0.404239657606521,  0.078188881951658,  0.291553186043404 ]
    mass: 107.868200
    reduced_to: 1
  - symbol: Ag # 4
    coordinates: [  0.604239657606521,  0.078188881951658,  0.291553186043404 ]
    mass: 107.868200
    reduced_to: 1
  - symbol: Ag # 5
    coordinates: [  0.804239657606521,  0.078188881951658,  0.291553186043404 ]
    mass: 107.868200
    reduced_to: 1
  - symbol: Ag # 6
    coordinates: [  0.004239657606521,  0.411522215284991,  0.291553186043404 ]
    mass: 107.868200
    reduced_to: 1
  - symbol: Ag # 7
    coordinates: [  0.204239657606521,  0.411522215284991,  0.291553186043404 ]
    mass: 107.868200
    reduced_to: 1
  - symbol: Ag # 8
    coordinates: [  0.404239657606521,  0.411522215284991,  0.291553186043404 ]
    mass: 107.868200
    reduced_to: 1
  - symbol: Ag # 9
    coordinates: [  0.604239657606521,  0.411522215284991,  0.291553186043404 ]
    mass: 107.868200
    reduced_to: 1
  - symbol: Ag # 10
    coordinates: [  0.804239657606521,  0.411522215284991,  0.291553186043404 ]
    mass: 107.868200
    reduced_to: 1
  - symbol: Ag # 11
    coordinates: [  0.004239657606521,  0.744855548618324,  0.291553186043404 ]
    mass: 107.868200
    reduced_to: 1
  - symbol: Ag # 12
    coordinates: [  0.204239657606521,  0.744855548618324,  0.291553186043404 ]
    mass: 107.868200
    reduced_to: 1
  - symbol: Ag # 13
    coordinates: [  0.404239657606521,  0.744855548618324,  0.291553186043404 ]
    mass: 107.868200
    reduced_to: 1
  - symbol: Ag # 14
    coordinates: [  0.604239657606521,  0.744855548618324,  0.291553186043404 ]
    mass: 107.868200
    reduced_to: 1
  - symbol: Ag # 15
    coordinates: [  0.804239657606521,  0.744855548618324,  0.291553186043404 ]
    mass: 107.868200
    reduced_to: 1
  - symbol: Ag # 16
    coordinates: [  0.004239657606521,  0.078188881951658,  0.624886519376738 ]
    mass: 107.868200
    reduced_to: 1
  - symbol: Ag # 17
    coordinates: [  0.204239657606521,  0.078188881951658,  0.624886519376738 ]
    mass: 107.868200
    reduced_to: 1
  - symbol: Ag # 18
    coordinates: [  0.404239657606521,  0.078188881951658,  0.624886519376738 ]
    mass: 107.868200
    reduced_to: 1
  - symbol: Ag # 19
    coordinates: [  0.604239657606521,  0.078188881951658,  0.624886519376738 ]
    mass: 107.868200
    reduced_to: 1
  - symbol: Ag # 20
    coordinates: [  0.804239657606521,  0.078188881951658,  0.624886519376738 ]
    mass: 107.868200
    reduced_to: 1
  - symbol: Ag # 21
    coordinates: [  0.004239657606521,  0.411522215284991,  0.624886519376738 ]
    mass: 107.868200
    reduced_to: 1
  - symbol: Ag # 22
    coordinates: [  0.204239657606521,  0.411522215284991,  0.624886519376738 ]
    mass: 107.868200
    reduced_to: 1
  - symbol: Ag # 23
    coordinates: [  0.404239657606521,  0.411522215284991,  0.624886519376738 ]
    mass: 107.868200
    reduced_to: 1
  - symbol: Ag # 24
    coordinates: [  0.604239657606521,  0.411522215284991,  0.624886519376738 ]
    mass: 107.868200
    reduced_to: 1
  - symbol: Ag # 25
    coordinates: [  0.804239657606521,  0.411522215284991,  0.624886519376738 ]
    mass: 107.868200
    reduced_to: 1
  - symbol: Ag # 26
    coordinates: [  0.004239657606521,  0.744855548618324,  0.624886519376738 ]
    mass: 107.868200
    reduced_to: 1
  - symbol: Ag # 27
    coordinates: [  0.204239657606521,  0.744855548618324,  0.624886519376738 ]
    mass: 107.868200
    reduced_to: 1
  - symbol: Ag # 28
    coordinates: [  0.404239657606521,  0.744855548618324,  0.624886519376738 ]
    mass: 107.868200
    reduced_to: 1
  - symbol: Ag # 29
    coordinates: [  0.604239657606521,  0.744855548618324,  0.624886519376738 ]
    mass: 107.868200
    reduced_to: 1
  - symbol: Ag # 30
    coordinates: [  0.804239657606521,  0.744855548618324,  0.624886519376738 ]
    mass: 107.868200
    reduced_to: 1
  - symbol: Ag # 31
    coordinates: [  0.004239657606521,  0.078188881951658,  0.958219852710071 ]
    mass: 107.868200
    reduced_to: 1
  - symbol: Ag # 32
    coordinates: [  0.204239657606521,  0.078188881951658,  0.958219852710071 ]
    mass: 107.868200
    reduced_to: 1
  - symbol: Ag # 33
    coordinates: [  0.404239657606521,  0.078188881951658,  0.958219852710071 ]
    mass: 107.868200
    reduced_to: 1
  - symbol: Ag # 34
    coordinates: [  0.604239657606521,  0.078188881951658,  0.958219852710071 ]
    mass: 107.868200
    reduced_to: 1
  - symbol: Ag # 35
    coordinates: [  0.804239657606521,  0.078188881951658,  0.958219852710071 ]
    mass: 107.868200
    reduced_to: 1
  - symbol: Ag # 36
    coordinates: [  0.004239657606521,  0.411522215284991,  0.958219852710071 ]
    mass: 107.868200
    reduced_to: 1
  - symbol: Ag # 37
    coordinates: [  0.204239657606521,  0.411522215284991,  0.958219852710071 ]
    mass: 107.868200
    reduced_to: 1
  - symbol: Ag # 38
    coordinates: [  0.404239657606521,  0.411522215284991,  0.958219852710071 ]
    mass: 107.868200
    reduced_to: 1
  - symbol: Ag # 39
    coordinates: [  0.604239657606521,  0.411522215284991,  0.958219852710071 ]
    mass: 107.868200
    reduced_to: 1
  - symbol: Ag # 40
    coordinates: [  0.804239657606521,  0.411522215284991,  0.958219852710071 ]
    mass: 107.868200
    reduced_to: 1
  - symbol: Ag # 41
    coordinates: [  0.004239657606521,  0.744855548618324,  0.958219852710071 ]
    mass: 107.868200
    reduced_to: 1
  - symbol: Ag # 42
    coordinates: [  0.204239657606521,  0.744855548618324,  0.958219852710071 ]
    mass: 107.868200
    reduced_to: 1
  - symbol: Ag # 43
    coordinates: [  0.404239657606521,  0.744855548618324,  0.958219852710071 ]
    mass: 107.868200
    reduced_to: 1
  - symbol: Ag # 44
    coordinates: [  0.604239657606521,  0.744855548618324,  0.958219852710071 ]
    mass: 107.868200
    reduced_to: 1
  - symbol: Ag # 45
    coordinates: [  0.804239657606521,  0.744855548618324,  0.958219852710071 ]
    mass: 107.868200
    reduced_to: 1
  - symbol: Ag # 46
    coordinates: [  0.136967755448525,  0.294415200287378,  0.315970866560228 ]
    mass: 107.868200
    reduced_to: 46
  - symbol: Ag # 47
    coordinates: [  0.336967755448525,  0.294415200287378,  0.315970866560228 ]
    mass: 107.868200
    reduced_to: 46
  - symbol: Ag # 48
    coordinates: [  0.536967755448525,  0.294415200287378,  0.315970866560228 ]
    mass: 107.868200
    reduced_to: 46
  - symbol: Ag # 49
    coordinates: [  0.736967755448525,  0.294415200287378,  0.315970866560228 ]
    mass: 107.868200
    reduced_to: 46
  - symbol: Ag # 50
    coordinates: [  0.936967755448525,  0.294415200287378,  0.315970866560228 ]
    mass: 107.868200
    reduced_to: 46
  - symbol: Ag # 51
    coordinates: [  0.136967755448525,  0.627748533620711,  0.315970866560228 ]
    mass: 107.868200
    reduced_to: 46
  - symbol: Ag # 52
    coordinates: [  0.336967755448525,  0.627748533620711,  0.315970866560228 ]
    mass: 107.868200
    reduced_to: 46
  - symbol: Ag # 53
    coordinates: [  0.536967755448525,  0.627748533620711,  0.315970866560228 ]
    mass: 107.868200
    reduced_to: 46
  - symbol: Ag # 54
    coordinates: [  0.736967755448525,  0.627748533620711,  0.315970866560228 ]
    mass: 107.868200
    reduced_to: 46
  - symbol: Ag # 55
    coordinates: [  0.936967755448525,  0.627748533620711,  0.315970866560228 ]
    mass: 107.868200
    reduced_to: 46
  - symbol: Ag # 56
    coordinates: [  0.136967755448525,  0.961081866954045,  0.315970866560228 ]
    mass: 107.868200
    reduced_to: 46
  - symbol: Ag # 57
    coordinates: [  0.336967755448525,  0.961081866954045,  0.315970866560228 ]
    mass: 107.868200
    reduced_to: 46
  - symbol: Ag # 58
    coordinates: [  0.536967755448525,  0.961081866954045,  0.315970866560228 ]
    mass: 107.868200
    reduced_to: 46
  - symbol: Ag # 59
    coordinates: [  0.736967755448525,  0.961081866954045,  0.315970866560228 ]
    mass: 107.868200
    reduced_to: 46
  - symbol: Ag # 60
    coordinates: [  0.936967755448525,  0.961081866954045,  0.315970866560228 ]
    mass: 107.868200
    reduced_to: 46
  - symbol: Ag # 61
    coordinates: [  0.136967755448525,  0.294415200287378,  0.649304199893561 ]
    mass: 107.868200
    reduced_to: 46
  - symbol: Ag # 62
    coordinates: [  0.336967755448525,  0.294415200287378,  0.649304199893561 ]
    mass: 107.868200
    reduced_to: 46
  - symbol: Ag # 63
    coordinates: [  0.536967755448525,  0.294415200287378,  0.649304199893561 ]
    mass: 107.868200
    reduced_to: 46
  - symbol: Ag # 64
    coordinates: [  0.736967755448525,  0.294415200287378,  0.649304199893561 ]
    mass: 107.868200
    reduced_to: 46
  - symbol: Ag # 65
    coordinates: [  0.936967755448525,  0.294415200287378,  0.649304199893561 ]
    mass: 107.868200
    reduced_to: 46
  - symbol: Ag # 66
    coordinates: [  0.136967755448525,  0.627748533620711,  0.649304199893561 ]
    mass: 107.868200
    reduced_to: 46
  - symbol: Ag # 67
    coordinates: [  0.336967755448525,  0.627748533620711,  0.649304199893561 ]
    mass: 107.868200
    reduced_to: 46
  - symbol: Ag # 68
    coordinates: [  0.536967755448525,  0.627748533620711,  0.649304199893561 ]
    mass: 107.868200
    reduced_to: 46
  - symbol: Ag # 69
    coordinates: [  0.736967755448525,  0.627748533620711,  0.649304199893561 ]
    mass: 107.868200
    reduced_to: 46
  - symbol: Ag # 70
    coordinates: [  0.936967755448525,  0.627748533620711,  0.649304199893561 ]
    mass: 107.868200
    reduced_to: 46
  - symbol: Ag # 71
    coordinates: [  0.136967755448525,  0.961081866954045,  0.649304199893561 ]
    mass: 107.868200
    reduced_to: 46
  - symbol: Ag # 72
    coordinates: [  0.336967755448525,  0.961081866954045,  0.649304199893561 ]
    mass: 107.868200
    reduced_to: 46
  - symbol: Ag # 73
    coordinates: [  0.536967755448525,  0.961081866954045,  0.649304199893561 ]
    mass: 107.868200
    reduced_to: 46
  - symbol: Ag # 74
    coordinates: [  0.736967755448525,  0.961081866954045,  0.649304199893561 ]
    mass: 107.868200
    reduced_to: 46
  - symbol: Ag # 75
    coordinates: [  0.936967755448525,  0.961081866954045,  0.649304199893561 ]
    mass: 107.868200
    reduced_to: 46
  - symbol: Ag # 76
    coordinates: [  0.136967755448525,  0.294415200287378,  0.982637533226894 ]
    mass: 107.868200
    reduced_to: 46
  - symbol: Ag # 77
    coordinates: [  0.336967755448525,  0.294415200287378,  0.982637533226894 ]
    mass: 107.868200
    reduced_to: 46
  - symbol: Ag # 78
    coordinates: [  0.536967755448525,  0.294415200287378,  0.982637533226894 ]
    mass: 107.868200
    reduced_to: 46
  - symbol: Ag # 79
    coordinates: [  0.736967755448525,  0.294415200287378,  0.982637533226894 ]
    mass: 107.868200
    reduced_to: 46
  - symbol: Ag # 80
    coordinates: [  0.936967755448525,  0.294415200287378,  0.982637533226894 ]
    mass: 107.868200
    reduced_to: 46
  - symbol: Ag # 81
    coordinates: [  0.136967755448525,  0.627748533620711,  0.982637533226894 ]
    mass: 107.868200
    reduced_to: 46
  - symbol: Ag # 82
    coordinates: [  0.336967755448525,  0.627748533620711,  0.982637533226894 ]
    mass: 107.868200
    reduced_to: 46
  - symbol: Ag # 83
    coordinates: [  0.536967755448525,  0.627748533620711,  0.982637533226894 ]
    mass: 107.868200
    reduced_to: 46
  - symbol: Ag # 84
    coordinates: [  0.736967755448525,  0.627748533620711,  0.982637533226894 ]
    mass: 107.868200
    reduced_to: 46
  - symbol: Ag # 85
    coordinates: [  0.936967755448525,  0.627748533620711,  0.982637533226894 ]
    mass: 107.868200
    reduced_to: 46
  - symbol: Ag # 86
    coordinates: [  0.136967755448525,  0.961081866954045,  0.982637533226894 ]
    mass: 107.868200
    reduced_to: 46
  - symbol: Ag # 87
    coordinates: [  0.336967755448525,  0.961081866954045,  0.982637533226894 ]
    mass: 107.868200
    reduced_to: 46
  - symbol: Ag # 88
    coordinates: [  0.536967755448525,  0.961081866954045,  0.982637533226894 ]
    mass: 107.868200
    reduced_to: 46
  - symbol: Ag # 89
    coordinates: [  0.736967755448525,  0.961081866954045,  0.982637533226894 ]
    mass: 107.868200
    reduced_to: 46
  - symbol: Ag # 90
    coordinates: [  0.936967755448525,  0.961081866954045,  0.982637533226894 ]
    mass: 107.868200
    reduced_to: 46
  - symbol: Ag # 91
    coordinates: [  0.095760342393478,  0.255144451381676,  0.124886519376738 ]
    mass: 107.868200
    reduced_to: 91
  - symbol: Ag # 92
    coordinates: [  0.295760342393478,  0.255144451381676,  0.124886519376738 ]
    mass: 107.868200
    reduced_to: 91
  - symbol: Ag # 93
    coordinates: [  0.495760342393478,  0.255144451381676,  0.124886519376738 ]
    mass: 107.868200
    reduced_to: 91
  - symbol: Ag # 94
    coordinates: [  0.695760342393478,  0.255144451381676,  0.124886519376738 ]
    mass: 107.868200
    reduced_to: 91
  - symbol: Ag # 95
    coordinates: [  0.895760342393478,  0.255144451381676,  0.124886519376738 ]
    mass: 107.868200
    reduced_to: 91
  - symbol: Ag # 96
    coordinates: [  0.095760342393478,  0.588477784715009,  0.124886519376738 ]
    mass: 107.868200
    reduced_to: 91
  - symbol: Ag # 97
    coordinates: [  0.295760342393478,  0.588477784715009,  0.124886519376738 ]
    mass: 107.868200
    reduced_to: 91
  - symbol: Ag # 98
    coordinates: [  0.495760342393478,  0.588477784715009,  0.124886519376738 ]
    mass: 107.868200
    reduced_to: 91
  - symbol: Ag # 99
    coordinates: [  0.695760342393478,  0.588477784715009,  0.124886519376738 ]
    mass: 107.868200
    reduced_to: 91
  - symbol: Ag # 100
    coordinates: [  0.895760342393478,  0.588477784715009,  0.124886519376738 ]
    mass: 107.868200
    reduced_to: 91
  - symbol: Ag # 101
    coordinates: [  0.095760342393478,  0.921811118048343,  0.124886519376738 ]
    mass: 107.868200
    reduced_to: 91
  - symbol: Ag # 102
    coordinates: [  0.295760342393478,  0.921811118048343,  0.124886519376738 ]
    mass: 107.868200
    reduced_to: 91
  - symbol: Ag # 103
    coordinates: [  0.495760342393478,  0.921811118048343,  0.124886519376738 ]
    mass: 107.868200
    reduced_to: 91
  - symbol: Ag # 104
    coordinates: [  0.695760342393478,  0.921811118048343,  0.124886519376738 ]
    mass: 107.868200
    reduced_to: 91
  - symbol: Ag # 105
    coordinates: [  0.895760342393478,  0.921811118048343,  0.124886519376738 ]
    mass: 107.868200
    reduced_to: 91
  - symbol: Ag # 106
    coordinates: [  0.095760342393478,  0.255144451381676,  0.458219852710071 ]
    mass: 107.868200
    reduced_to: 91
  - symbol: Ag # 107
    coordinates: [  0.295760342393478,  0.255144451381676,  0.458219852710071 ]
    mass: 107.868200
    reduced_to: 91
  - symbol: Ag # 108
    coordinates: [  0.495760342393478,  0.255144451381676,  0.458219852710071 ]
    mass: 107.868200
    reduced_to: 91
  - symbol: Ag # 109
    coordinates: [  0.695760342393478,  0.255144451381676,  0.458219852710071 ]
    mass: 107.868200
    reduced_to: 91
  - symbol: Ag # 110
    coordinates: [  0.895760342393478,  0.255144451381676,  0.458219852710071 ]
    mass: 107.868200
    reduced_to: 91
  - symbol: Ag # 111
    coordinates: [  0.095760342393478,  0.588477784715009,  0.458219852710071 ]
    mass: 107.868200
    reduced_to: 91
  - symbol: Ag # 112
    coordinates: [  0.295760342393478,  0.588477784715009,  0.458219852710071 ]
    mass: 107.868200
    reduced_to: 91
  - symbol: Ag # 113
    coordinates: [  0.495760342393478,  0.588477784715009,  0.458219852710071 ]
    mass: 107.868200
    reduced_to: 91
  - symbol: Ag # 114
    coordinates: [  0.695760342393478,  0.588477784715009,  0.458219852710071 ]
    mass: 107.868200
    reduced_to: 91
  - symbol: Ag # 115
    coordinates: [  0.895760342393478,  0.588477784715009,  0.458219852710071 ]
    mass: 107.868200
    reduced_to: 91
  - symbol: Ag # 116
    coordinates: [  0.095760342393478,  0.921811118048343,  0.458219852710071 ]
    mass: 107.868200
    reduced_to: 91
  - symbol: Ag # 117
    coordinates: [  0.295760342393478,  0.921811118048343,  0.458219852710071 ]
    mass: 107.868200
    reduced_to: 91
  - symbol: Ag # 118
    coordinates: [  0.495760342393478,  0.921811118048343,  0.458219852710071 ]
    mass: 107.868200
    reduced_to: 91
  - symbol: Ag # 119
    coordinates: [  0.695760342393478,  0.921811118048343,  0.458219852710071 ]
    mass: 107.868200
    reduced_to: 91
  - symbol: Ag # 120
    coordinates: [  0.895760342393478,  0.921811118048343,  0.458219852710071 ]
    mass: 107.868200
    reduced_to: 91
  - symbol: Ag # 121
    coordinates: [  0.095760342393478,  0.255144451381676,  0.791553186043404 ]
    mass: 107.868200
    reduced_to: 91
  - symbol: Ag # 122
    coordinates: [  0.295760342393478,  0.255144451381676,  0.791553186043404 ]
    mass: 107.868200
    reduced_to: 91
  - symbol: Ag # 123
    coordinates: [  0.495760342393478,  0.255144451381676,  0.791553186043404 ]
    mass: 107.868200
    reduced_to: 91
  - symbol: Ag # 124
    coordinates: [  0.695760342393478,  0.255144451381676,  0.791553186043404 ]
    mass: 107.868200
    reduced_to: 91
  - symbol: Ag # 125
    coordinates: [  0.895760342393478,  0.255144451381676,  0.791553186043404 ]
    mass: 107.868200
    reduced_to: 91
  - symbol: Ag # 126
    coordinates: [  0.095760342393478,  0.588477784715009,  0.791553186043404 ]
    mass: 107.868200
    reduced_to: 91
  - symbol: Ag # 127
    coordinates: [  0.295760342393478,  0.588477784715009,  0.791553186043404 ]
    mass: 107.868200
    reduced_to: 91
  - symbol: Ag # 128
    coordinates: [  0.495760342393478,  0.588477784715009,  0.791553186043404 ]
    mass: 107.868200
    reduced_to: 91
  - symbol: Ag # 129
    coordinates: [  0.695760342393478,  0.588477784715009,  0.791553186043404 ]
    mass: 107.868200
    reduced_to: 91
  - symbol: Ag # 130
    coordinates: [  0.895760342393478,  0.588477784715009,  0.791553186043404 ]
    mass: 107.868200
    reduced_to: 91
  - symbol: Ag # 131
    coordinates: [  0.095760342393478,  0.921811118048343,  0.791553186043404 ]
    mass: 107.868200
    reduced_to: 91
  - symbol: Ag # 132
    coordinates: [  0.295760342393478,  0.921811118048343,  0.791553186043404 ]
    mass: 107.868200
    reduced_to: 91
  - symbol: Ag # 133
    coordinates: [  0.495760342393478,  0.921811118048343,  0.791553186043404 ]
    mass: 107.868200
    reduced_to: 91
  - symbol: Ag # 134
    coordinates: [  0.695760342393478,  0.921811118048343,  0.791553186043404 ]
    mass: 107.868200
    reduced_to: 91
  - symbol: Ag # 135
    coordinates: [  0.895760342393478,  0.921811118048343,  0.791553186043404 ]
    mass: 107.868200
    reduced_to: 91
  - symbol: Ag # 136
    coordinates: [  0.036967755448526,  0.205584799712621,  0.017362466773105 ]
    mass: 107.868200
    reduced_to: 136
  - symbol: Ag # 137
    coordinates: [  0.236967755448526,  0.205584799712621,  0.017362466773105 ]
    mass: 107.868200
    reduced_to: 136
  - symbol: Ag # 138
    coordinates: [  0.436967755448526,  0.205584799712621,  0.017362466773105 ]
    mass: 107.868200
    reduced_to: 136
  - symbol: Ag # 139
    coordinates: [  0.636967755448526,  0.205584799712621,  0.017362466773105 ]
    mass: 107.868200
    reduced_to: 136
  - symbol: Ag # 140
    coordinates: [  0.836967755448526,  0.205584799712621,  0.017362466773105 ]
    mass: 107.868200
    reduced_to: 136
  - symbol: Ag # 141
    coordinates: [  0.036967755448526,  0.538918133045955,  0.017362466773105 ]
    mass: 107.868200
    reduced_to: 136
  - symbol: Ag # 142
    coordinates: [  0.236967755448526,  0.538918133045955,  0.017362466773105 ]
    mass: 107.868200
    reduced_to: 136
  - symbol: Ag # 143
    coordinates: [  0.436967755448526,  0.538918133045955,  0.017362466773105 ]
    mass: 107.868200
    reduced_to: 136
  - symbol: Ag # 144
    coordinates: [  0.636967755448526,  0.538918133045955,  0.017362466773105 ]
    mass: 107.868200
    reduced_to: 136
  - symbol: Ag # 145
    coordinates: [  0.836967755448526,  0.538918133045955,  0.017362466773105 ]
    mass: 107.868200
    reduced_to: 136
  - symbol: Ag # 146
    coordinates: [  0.036967755448526,  0.872251466379288,  0.017362466773105 ]
    mass: 107.868200
    reduced_to: 136
  - symbol: Ag # 147
    coordinates: [  0.236967755448526,  0.872251466379288,  0.017362466773105 ]
    mass: 107.868200
    reduced_to: 136
  - symbol: Ag # 148
    coordinates: [  0.436967755448526,  0.872251466379288,  0.017362466773105 ]
    mass: 107.868200
    reduced_to: 136
  - symbol: Ag # 149
    coordinates: [  0.636967755448526,  0.872251466379288,  0.017362466773105 ]
    mass: 107.868200
    reduced_to: 136
  - symbol: Ag # 150
    coordinates: [  0.836967755448526,  0.872251466379288,  0.017362466773105 ]
    mass: 107.868200
    reduced_to: 136
  - symbol: Ag # 151
    coordinates: [  0.036967755448526,  0.205584799712621,  0.350695800106438 ]
    mass: 107.868200
    reduced_to: 136
  - symbol: Ag # 152
    coordinates: [  0.236967755448526,  0.205584799712621,  0.350695800106438 ]
    mass: 107.868200
    reduced_to: 136
  - symbol: Ag # 153
    coordinates: [  0.436967755448526,  0.205584799712621,  0.350695800106438 ]
    mass: 107.868200
    reduced_to: 136
  - symbol: Ag # 154
    coordinates: [  0.636967755448526,  0.205584799712621,  0.350695800106438 ]
    mass: 107.868200
    reduced_to: 136
  - symbol: Ag # 155
    coordinates: [  0.836967755448526,  0.205584799712621,  0.350695800106438 ]
    mass: 107.868200
    reduced_to: 136
  - symbol: Ag # 156
    coordinates: [  0.036967755448526,  0.538918133045955,  0.350695800106438 ]
    mass: 107.868200
    reduced_to: 136
  - symbol: Ag # 157
    coordinates: [  0.236967755448526,  0.538918133045955,  0.350695800106438 ]
    mass: 107.868200
    reduced_to: 136
  - symbol: Ag # 158
    coordinates: [  0.436967755448526,  0.538918133045955,  0.350695800106438 ]
    mass: 107.868200
    reduced_to: 136
  - symbol: Ag # 159
    coordinates: [  0.636967755448526,  0.538918133045955,  0.350695800106438 ]
    mass: 107.868200
    reduced_to: 136
  - symbol: Ag # 160
    coordinates: [  0.836967755448526,  0.538918133045955,  0.350695800106438 ]
    mass: 107.868200
    reduced_to: 136
  - symbol: Ag # 161
    coordinates: [  0.036967755448526,  0.872251466379288,  0.350695800106438 ]
    mass: 107.868200
    reduced_to: 136
  - symbol: Ag # 162
    coordinates: [  0.236967755448526,  0.872251466379288,  0.350695800106438 ]
    mass: 107.868200
    reduced_to: 136
  - symbol: Ag # 163
    coordinates: [  0.436967755448526,  0.872251466379288,  0.350695800106438 ]
    mass: 107.868200
    reduced_to: 136
  - symbol: Ag # 164
    coordinates: [  0.636967755448526,  0.872251466379288,  0.350695800106438 ]
    mass: 107.868200
    reduced_to: 136
  - symbol: Ag # 165
    coordinates: [  0.836967755448526,  0.872251466379288,  0.350695800106438 ]
    mass: 107.868200
    reduced_to: 136
  - symbol: Ag # 166
    coordinates: [  0.036967755448526,  0.205584799712621,  0.684029133439771 ]
    mass: 107.868200
    reduced_to: 136
  - symbol: Ag # 167
    coordinates: [  0.236967755448526,  0.205584799712621,  0.684029133439771 ]
    mass: 107.868200
    reduced_to: 136
  - symbol: Ag # 168
    coordinates: [  0.436967755448526,  0.205584799712621,  0.684029133439771 ]
    mass: 107.868200
    reduced_to: 136
  - symbol: Ag # 169
    coordinates: [  0.636967755448526,  0.205584799712621,  0.684029133439771 ]
    mass: 107.868200
    reduced_to: 136
  - symbol: Ag # 170
    coordinates: [  0.836967755448526,  0.205584799712621,  0.684029133439771 ]
    mass: 107.868200
    reduced_to: 136
  - symbol: Ag # 171
    coordinates: [  0.036967755448526,  0.538918133045955,  0.684029133439771 ]
    mass: 107.868200
    reduced_to: 136
  - symbol: Ag # 172
    coordinates: [  0.236967755448526,  0.538918133045955,  0.684029133439771 ]
    mass: 107.868200
    reduced_to: 136
  - symbol: Ag # 173
    coordinates: [  0.436967755448526,  0.538918133045955,  0.684029133439771 ]
    mass: 107.868200
    reduced_to: 136
  - symbol: Ag # 174
    coordinates: [  0.636967755448526,  0.538918133045955,  0.684029133439771 ]
    mass: 107.868200
    reduced_to: 136
  - symbol: Ag # 175
    coordinates: [  0.836967755448526,  0.538918133045955,  0.684029133439771 ]
    mass: 107.868200
    reduced_to: 136
  - symbol: Ag # 176
    coordinates: [  0.036967755448526,  0.872251466379288,  0.684029133439771 ]
    mass: 107.868200
    reduced_to: 136
  - symbol: Ag # 177
    coordinates: [  0.236967755448526,  0.872251466379288,  0.684029133439771 ]
    mass: 107.868200
    reduced_to: 136
  - symbol: Ag # 178
    coordinates: [  0.436967755448526,  0.872251466379288,  0.684029133439771 ]
    mass: 107.868200
    reduced_to: 136
  - symbol: Ag # 179
    coordinates: [  0.636967755448526,  0.872251466379288,  0.684029133439771 ]
    mass: 107.868200
    reduced_to: 136
  - symbol: Ag # 180
    coordinates: [  0.836967755448526,  0.872251466379288,  0.684029133439771 ]
    mass: 107.868200
    reduced_to: 136
  - symbol: Ag # 181