phonopy:
  version: "2.27.0"
  frequency_unit_conversion_factor: 15.633302
  symmetry_tolerance: 1.00000e-03

space_group:
  type: "R-3m"
  number: 166
  Hall_symbol: "-R 3 2\""

primitive_matrix:
- [  0.666666666666667, -0.333333333333333, -0.333333333333333 ]
- [  0.333333333333333,  0.333333333333333, -0.666666666666667 ]
- [  0.333333333333333,  0.333333333333333,  0.333333333333333 ]

supercell_matrix:
- [   5,  -3,   0 ]
- [   5,   3,   0 ]
- [   0,   0,   1 ]

primitive_cell:
  lattice:
  - [     2.169431681605731,    -1.252521965363573,    10.467073138560226 ] # a
  - [    -0.000000000000001,     2.505043930727138,    10.467073138560227 ] # b
  - [    -2.169431681605732,    -1.252521965363572,    10.467073138560224 ] # c
  points:
  - symbol: Bi # 1
    coordinates: [  0.606985196034391,  0.606985196034390,  0.606985196034386 ]
    mass: 208.980400
  - symbol: Bi # 2
    coordinates: [  0.393014803965610,  0.393014803965605,  0.393014803965605 ]
    mass: 208.980400
  - symbol: Te # 3
    coordinates: [  0.217132212029934,  0.217132212029933,  0.217132212029929 ]
    mass: 127.600000
  - symbol: Te # 4
    coordinates: [  0.782867787970067,  0.782867787970062,  0.782867787970061 ]
    mass: 127.600000
  - symbol: Se # 5
    coordinates: [  0.000000000000001,  0.999999999999997,  0.999999999999995 ]
    mass: 78.960000
  reciprocal_lattice: # without 2pi
  - [     0.230475107485256,    -0.133064865348120,     0.031845897025917 ] # a*
  - [     0.000000000000000,     0.266129730696241,     0.031845897025917 ] # b*
  - [    -0.230475107485256,    -0.133064865348121,     0.031845897025917 ] # c*

unit_cell:
  lattice:
  - [     2.169431681605731,    -3.757565896090711,    -0.000000000000001 ] # a
  - [     2.169431681605732,     3.757565896090711,     0.000000000000001 ] # b
  - [    -0.000000000000002,    -0.000000000000006,    31.401219415680686 ] # c
  points:
  - symbol: Bi # 1
    coordinates: [  0.333333333333336,  0.666666666666670,  0.273651862701056 ]
    mass: 208.980400
    reduced_to: 1
  - symbol: Bi # 2
    coordinates: [  0.333333333333337,  0.666666666666668,  0.059681470632274 ]
    mass: 208.980400
    reduced_to: 2
  - symbol: Bi # 3
    coordinates: [  0.000000000000002,  0.000000000000002,  0.606985196034388 ]
    mass: 208.980400
    reduced_to: 1
  - symbol: Bi # 4
    coordinates: [  0.000000000000003,  0.000000000000002,  0.393014803965607 ]
    mass: 208.980400
    reduced_to: 2
  - symbol: Bi # 5
    coordinates: [  0.666666666666669,  0.333333333333336,  0.940318529367722 ]
    mass: 208.980400
    reduced_to: 1
  - symbol: Bi # 6
    coordinates: [  0.666666666666670,  0.333333333333335,  0.726348137298940 ]
    mass: 208.980400
    reduced_to: 2
  - symbol: Te # 7
    coordinates: [  0.000000000000002,  0.000000000000003,  0.217132212029932 ]
    mass: 127.600000
    reduced_to: 7
  - symbol: Te # 8
    coordinates: [  0.666666666666670,  0.333333333333335,  0.116201121303397 ]
    mass: 127.600000
    reduced_to: 8
  - symbol: Te # 9
    coordinates: [  0.666666666666669,  0.333333333333336,  0.550465545363265 ]
    mass: 127.600000
    reduced_to: 7
  - symbol: Te # 10
    coordinates: [  0.333333333333337,  0.666666666666668,  0.449534454636730 ]
    mass: 127.600000
    reduced_to: 8
  - symbol: Te # 11
    coordinates: [  0.333333333333335,  0.666666666666670,  0.883798878696598 ]
    mass: 127.600000
    reduced_to: 7
  - symbol: Te # 12
    coordinates: [  0.000000000000003,  0.000000000000002,  0.782867787970063 ]
    mass: 127.600000
    reduced_to: 8
  - symbol: Se # 13
    coordinates: [  0.000000000000003,  0.000000000000002, -0.000000000000002 ]
    mass: 78.960000
    reduced_to: 13
  - symbol: Se # 14
    coordinates: [  0.666666666666670,  0.333333333333336,  0.333333333333331 ]
    mass: 78.960000
    reduced_to: 13
  - symbol: Se # 15
    coordinates: [  0.333333333333336,  0.666666666666669,  0.666666666666664 ]
    mass: 78.960000
    reduced_to: 13

supercell:
  lattice:
  - [    21.694316816057317,     0.000000000000001,     0.000000000000000 ] # a
  - [     0.000000000000003,    22.545395376544271,     0.000000000000006 ] # b
  - [    -0.000000000000002,    -0.000000000000006,    31.401219415680686 ] # c
  points:
  - symbol: Bi # 1
    coordinates: [  0.100000000000001,  0.055555555555556,  0.273651862701056 ]
    mass: 208.980400
    reduced_to: 1
  - symbol: Bi # 2
    coordinates: [  0.200000000000001,  0.888888888888889,  0.273651862701056 ]
    mass: 208.980400
    reduced_to: 1
  - symbol: Bi # 3
    coordinates: [  0.300000000000001,  0.722222222222222,  0.273651862701056 ]
    mass: 208.980400
    reduced_to: 1
  - symbol: Bi # 4
    coordinates: [  0.400000000000001,  0.555555555555556,  0.273651862701056 ]
    mass: 208.980400
    reduced_to: 1
  - symbol: Bi # 5
    coordinates: [  0.500000000000001,  0.388888888888889,  0.273651862701056 ]
    mass: 208.980400
    reduced_to: 1
  - symbol: Bi # 6
    coordinates: [  0.600000000000001,  0.222222222222222,  0.273651862701056 ]
    mass: 208.980400
    reduced_to: 1
  - symbol: Bi # 7
    coordinates: [  0.700000000000001,  0.055555555555556,  0.273651862701056 ]
    mass: 208.980400
    reduced_to: 1
  - symbol: Bi # 8
    coordinates: [  0.800000000000001,  0.888888888888889,  0.273651862701056 ]
    mass: 208.980400
    reduced_to: 1
  - symbol: Bi # 9
    coordinates: [  0.200000000000001,  0.222222222222222,  0.273651862701056 ]
    mass: 208.980400
    reduced_to: 1
  - symbol: Bi # 10
    coordinates: [  0.300000000000001,  0.055555555555556,  0.273651862701056 ]
    mass: 208.980400
    reduced_to: 1
  - symbol: Bi # 11
    coordinates: [  0.400000000000001,  0.888888888888889,  0.273651862701056 ]
    mass: 208.980400
    reduced_to: 1
  - symbol: Bi # 12
    coordinates: [  0.500000000000001,  0.722222222222222,  0.273651862701056 ]
    mass: 208.980400
    reduced_to: 1
  - symbol: Bi # 13
    coordinates: [  0.600000000000001,  0.555555555555556,  0.273651862701056 ]
    mass: 208.980400
    reduced_to: 1
  - symbol: Bi # 14
    coordinates: [  0.700000000000001,  0.388888888888889,  0.273651862701056 ]
    mass: 208.980400
    reduced_to: 1
  - symbol: Bi # 15
    coordinates: [  0.800000000000001,  0.222222222222222,  0.273651862701056 ]
    mass: 208.980400
    reduced_to: 1
  - symbol: Bi # 16
    coordinates: [  0.900000000000001,  0.055555555555556,  0.273651862701056 ]
    mass: 208.980400
    reduced_to: 1
  - symbol: Bi # 17
    coordinates: [  0.300000000000001,  0.388888888888889,  0.273651862701056 ]
    mass: 208.980400
    reduced_to: 1
  - symbol: Bi # 18
    coordinates: [  0.400000000000001,  0.222222222222222,  0.273651862701056 ]
    mass: 208.980400
    reduced_to: 1
  - symbol: Bi # 19
    coordinates: [  0.500000000000001,  0.055555555555556,  0.273651862701056 ]
    mass: 208.980400
    reduced_to: 1
  - symbol: Bi # 20
    coordinates: [  0.600000000000001,  0.888888888888889,  0.273651862701056 ]
    mass: 208.980400
    reduced_to: 1
  - symbol: Bi # 21
    coordinates: [  0.700000000000001,  0.722222222222222,  0.273651862701056 ]
    mass: 208.980400
    reduced_to: 1
  - symbol: Bi # 22
    coordinates: [  0.800000000000000,  0.555555555555556,  0.273651862701056 ]
    mass: 208.980400
    reduced_to: 1
  - symbol: Bi # 23
    coordinates: [  0.900000000000001,  0.388888888888889,  0.273651862701056 ]
    mass: 208.980400
    reduced_to: 1
  - symbol: Bi # 24
    coordinates: [  0.000000000000001,  0.222222222222222,  0.273651862701056 ]
    mass: 208.980400
    reduced_to: 1
  - symbol: Bi # 25
    coordinates: [  0.900000000000001,  0.722222222222222,  0.273651862701056 ]
    mass: 208.980400
    reduced_to: 1
  - symbol: Bi # 26
    coordinates: [  0.000000000000001,  0.555555555555556,  0.273651862701056 ]
    mass: 208.980400
    reduced_to: 1
  - symbol: Bi # 27
    coordinates: [  0.100000000000001,  0.388888888888889,  0.273651862701056 ]
    mass: 208.980400
    reduced_to: 1
  - symbol: Bi # 28
    coordinates: [  0.000000000000000,  0.888888888888889,  0.273651862701056 ]
    mass: 208.980400
    reduced_to: 1
  - symbol: Bi # 29
    coordinates: [  0.100000000000001,  0.722222222222222,  0.273651862701056 ]
    mass: 208.980400
    reduced_to: 1
  - symbol: Bi # 30
    coordinates: [  0.200000000000001,  0.555555555555556,  0.273651862701056 ]
    mass: 208.980400
    reduced_to: 1
  - symbol: Bi # 31
    coordinates: [  0.100000000000001,  0.055555555555555,  0.059681470632274 ]
    mass: 208.980400
    reduced_to: 31
  - symbol: Bi # 32
    coordinates: [  0.200000000000001,  0.888888888888889,  0.059681470632274 ]
    mass: 208.980400
    reduced_to: 31
  - symbol: Bi # 33
    coordinates: [  0.300000000000000,  0.722222222222222,  0.059681470632274 ]
    mass: 208.980400
    reduced_to: 31
  - symbol: Bi # 34
    coordinates: [  0.400000000000001,  0.555555555555555,  0.059681470632274 ]
    mass: 208.980400
    reduced_to: 31
  - symbol: Bi # 35
    coordinates: [  0.500000000000001,  0.388888888888889,  0.059681470632274 ]
    mass: 208.980400
    reduced_to: 31
  - symbol: Bi # 36
    coordinates: [  0.600000000000001,  0.222222222222222,  0.059681470632274 ]
    mass: 208.980400
    reduced_to: 31
  - symbol: Bi # 37
    coordinates: [  0.700000000000001,  0.055555555555555,  0.059681470632274 ]
    mass: 208.980400
    reduced_to: 31
  - symbol: Bi # 38
    coordinates: [  0.800000000000001,  0.888888888888889,  0.059681470632274 ]
    mass: 208.980400
    reduced_to: 31
  - symbol: Bi # 39
    coordinates: [  0.200000000000001,  0.222222222222222,  0.059681470632274 ]
    mass: 208.980400
    reduced_to: 31
  - symbol: Bi # 40
    coordinates: [  0.300000000000001,  0.055555555555555,  0.059681470632274 ]
    mass: 208.980400
    reduced_to: 31
  - symbol: Bi # 41
    coordinates: [  0.400000000000001,  0.888888888888889,  0.059681470632274 ]
    mass: 208.980400
    reduced_to: 31
  - symbol: Bi # 42
    coordinates: [  0.500000000000001,  0.722222222222222,  0.059681470632274 ]
    mass: 208.980400
    reduced_to: 31
  - symbol: Bi # 43
    coordinates: [  0.600000000000001,  0.555555555555555,  0.059681470632274 ]
    mass: 208.980400
    reduced_to: 31
  - symbol: Bi # 44
    coordinates: [  0.700000000000001,  0.388888888888889,  0.059681470632274 ]
    mass: 208.980400
    reduced_to: 31
  - symbol: Bi # 45
    coordinates: [  0.800000000000001,  0.222222222222222,  0.059681470632274 ]
    mass: 208.980400
    reduced_to: 31
  - symbol: Bi # 46
    coordinates: [  0.900000000000001,  0.055555555555555,  0.059681470632274 ]
    mass: 208.980400
    reduced_to: 31
  - symbol: Bi # 47
    coordinates: [  0.300000000000001,  0.388888888888889,  0.059681470632274 ]
    mass: 208.980400
    reduced_to: 31
  - symbol: Bi # 48
    coordinates: [  0.400000000000001,  0.222222222222222,  0.059681470632274 ]
    mass: 208.980400
    reduced_to: 31
  - symbol: Bi # 49
    coordinates: [  0.500000000000001,  0.055555555555555,  0.059681470632274 ]
    mass: 208.980400
    reduced_to: 31
  - symbol: Bi # 50
    coordinates: [  0.600000000000001,  0.888888888888889,  0.059681470632274 ]
    mass: 208.980400
    reduced_to: 31
  - symbol: Bi # 51
    coordinates: [  0.700000000000001,  0.722222222222222,  0.059681470632274 ]
    mass: 208.980400
    reduced_to: 31
  - symbol: Bi # 52
    coordinates: [  0.800000000000000,  0.555555555555555,  0.059681470632274 ]
    mass: 208.980400
    reduced_to: 31
  - symbol: Bi # 53
    coordinates: [  0.900000000000001,  0.388888888888889,  0.059681470632274 ]
    mass: 208.980400
    reduced_to: 31
  - symbol: Bi # 54
    coordinates: [  0.000000000000001,  0.222222222222222,  0.059681470632274 ]
    mass: 208.980400
    reduced_to: 31
  - symbol: Bi # 55
    coordinates: [  0.900000000000000,  0.722222222222222,  0.059681470632274 ]
    mass: 208.980400
    reduced_to: 31
  - symbol: Bi # 56
    coordinates: [  0.000000000000001,  0.555555555555555,  0.059681470632274 ]
    mass: 208.980400
    reduced_to: 31
  - symbol: Bi # 57
    coordinates: [  0.100000000000001,  0.388888888888889,  0.059681470632274 ]
    mass: 208.980400
    reduced_to: 31
  - symbol: Bi # 58
    coordinates: [  0.000000000000001,  0.888888888888889,  0.059681470632274 ]
    mass: 208.980400
    reduced_to: 31
  - symbol: Bi # 59
    coordinates: [  0.100000000000001,  0.722222222222222,  0.059681470632274 ]
    mass: 208.980400
    reduced_to: 31
  - symbol: Bi # 60
    coordinates: [  0.200000000000001,  0.555555555555555,  0.059681470632274 ]
    mass: 208.980400
    reduced_to: 31
  - symbol: Bi # 61
    coordinates: [  0.000000000000000,  0.000000000000000,  0.606985196034388 ]
    mass: 208.980400
    reduced_to: 1
  - symbol: Bi # 62
    coordinates: [  0.100000000000000,  0.833333333333333,  0.606985196034388 ]
    mass: 208.980400
    reduced_to: 1
  - symbol: Bi # 63
    coordinates: [  0.200000000000000,  0.666666666666667,  0.606985196034388 ]
    mass: 208.980400
    reduced_to: 1
  - symbol: Bi # 64
    coordinates: [  0.300000000000000,  0.500000000000000,  0.606985196034388 ]
    mass: 208.980400
    reduced_to: 1
  - symbol: Bi # 65
    coordinates: [  0.400000000000000,  0.333333333333333,  0.606985196034388 ]
    mass: 208.980400
    reduced_to: 1
  - symbol: Bi # 66
    coordinates: [  0.500000000000000,  0.166666666666667,  0.606985196034388 ]
    mass: 208.980400
    reduced_to: 1
  - symbol: Bi # 67
    coordinates: [  0.600000000000000,  0.000000000000000,  0.606985196034388 ]
    mass: 208.980400
    reduced_to: 1
  - symbol: Bi # 68
    coordinates: [  0.700000000000000,  0.833333333333333,  0.606985196034388 ]
    mass: 208.980400
    reduced_to: 1
  - symbol: Bi # 69
    coordinates: [  0.100000000000000,  0.166666666666667,  0.606985196034388 ]
    mass: 208.980400
    reduced_to: 1
  - symbol: Bi # 70
    coordinates: [  0.200000000000000,  0.000000000000000,  0.606985196034388 ]
    mass: 208.980400
    reduced_to: 1
  - symbol: Bi # 71
    coordinates: [  0.300000000000000,  0.833333333333333,  0.606985196034388 ]
    mass: 208.980400
    reduced_to: 1
  - symbol: Bi # 72
    coordinates: [  0.400000000000000,  0.666666666666667,  0.606985196034388 ]
    mass: 208.980400
    reduced_to: 1
  - symbol: Bi # 73
    coordinates: [  0.500000000000000,  0.500000000000000,  0.606985196034388 ]
    mass: 208.980400
    reduced_to: 1
  - symbol: Bi # 74
    coordinates: [  0.600000000000000,  0.333333333333333,  0.606985196034388 ]
    mass: 208.980400
    reduced_to: 1
  - symbol: Bi # 75
    coordinates: [  0.700000000000000,  0.166666666666667,  0.606985196034388 ]
    mass: 208.980400
    reduced_to: 1
  - symbol: Bi # 76
    coordinates: [  0.800000000000000,  0.000000000000000,  0.606985196034388 ]
    mass: 208.980400
    reduced_to: 1
  - symbol: Bi # 77
    coordinates: [  0.200000000000000,  0.333333333333333,  0.606985196034388 ]
    mass: 208.980400
    reduced_to: 1
  - symbol: Bi # 78
    coordinates: [  0.300000000000000,  0.166666666666667,  0.606985196034388 ]
    mass: 208.980400
    reduced_to: 1
  - symbol: Bi # 79
    coordinates: [  0.400000000000000,  0.000000000000000,  0.606985196034388 ]
    mass: 208.980400
    reduced_to: 1
  - symbol: Bi # 80
    coordinates: [  0.500000000000000,  0.833333333333333,  0.606985196034388 ]
    mass: 208.980400
    reduced_to: 1
  - symbol: Bi # 81
    coordinates: [  0.600000000000000,  0.666666666666667,  0.606985196034388 ]
    mass: 208.980400
    reduced_to: 1
  - symbol: Bi # 82
    coordinates: [  0.700000000000001,  0.500000000000000,  0.606985196034388 ]
    mass: 208.980400
    reduced_to: 1
  - symbol: Bi # 83
    coordinates: [  0.800000000000000,  0.333333333333333,  0.606985196034388 ]
    mass: 208.980400
    reduced_to: 1
  - symbol: Bi # 84
    coordinates: [  0.900000000000000,  0.166666666666667,  0.606985196034388 ]
    mass: 208.980400
    reduced_to: 1
  - symbol: Bi # 85
    coordinates: [  0.800000000000000,  0.666666666666667,  0.606985196034388 ]
    mass: 208.980400
    reduced_to: 1
  - symbol: Bi # 86
    coordinates: [  0.900000000000000,  0.500000000000000,  0.606985196034388 ]
    mass: 208.980400
    reduced_to: 1
  - symbol: Bi # 87
    coordinates: [  0.000000000000000,  0.333333333333333,  0.606985196034388 ]
    mass: 208.980400
    reduced_to: 1
  - symbol: Bi # 88
    coordinates: [  0.900000000000000,  0.833333333333333,  0.606985196034388 ]
    mass: 208.980400
    reduced_to: 1
  - symbol: Bi # 89
    coordinates: [  0.000000000000000,  0.666666666666667,  0.606985196034388 ]
    mass: 208.980400
    reduced_to: 1
  - symbol: Bi # 90
    coordinates: [  0.100000000000001,  0.500000000000000,  0.606985196034388 ]
    mass: 208.980400
    reduced_to: 1
  - symbol: Bi # 91
    coordinates: [  0.000000000000000,  1.000000000000000,  0.393014803965607 ]
    mass: 208.980400
    reduced_to: 31
  - symbol: Bi # 92
    coordinates: [  0.100000000000000,  0.833333333333333,  0.393014803965607 ]
    mass: 208.980400
    reduced_to: 31
  - symbol: Bi # 93
    coordinates: [  0.200000000000000,  0.666666666666667,  0.393014803965607 ]
    mass: 208.980400
    reduced_to: 31
  - symbol: Bi # 94
    coordinates: [  0.300000000000000,  0.500000000000000,  0.393014803965607 ]
    mass: 208.980400
    reduced_to: 31
  - symbol: Bi # 95
    coordinates: [  0.400000000000001,  0.333333333333333,  0.393014803965607 ]
    mass: 208.980400
    reduced_to: 31
  - symbol: Bi # 96
    coordinates: [  0.500000000000000,  0.166666666666666,  0.393014803965607 ]
    mass: 208.980400
    reduced_to: 31
  - symbol: Bi # 97
    coordinates: [  0.600000000000001,  1.000000000000000,  0.393014803965607 ]
    mass: 208.980400
    reduced_to: 31
  - symbol: Bi # 98
    coordinates: [  0.700000000000001,  0.833333333333333,  0.393014803965607 ]
    mass: 208.980400
    reduced_to: 31
  - symbol: Bi # 99
    coordinates: [  0.100000000000000,  0.166666666666666,  0.393014803965607 ]
    mass: 208.980400
    reduced_to: 31
  - symbol: Bi # 100
    coordinates: [  0.200000000000000,  1.000000000000000,  0.393014803965607 ]
    mass: 208.980400
    reduced_to: 31
  - symbol: Bi # 101
    coordinates: [  0.300000000000000,  0.833333333333333,  0.393014803965607 ]
    mass: 208.980400
    reduced_to: 31
  - symbol: Bi # 102
    coordinates: [  0.400000000000000,  0.666666666666667,  0.393014803965607 ]
    mass: 208.980400
    reduced_to: 31
  - symbol: Bi # 103
    coordinates: [  0.500000000000001,  0.500000000000000,  0.393014803965607 ]
    mass: 208.980400
    reduced_to: 31
  - symbol: Bi # 104
    coordinates: [  0.600000000000001,  0.333333333333333,  0.393014803965607 ]
    mass: 208.980400
    reduced_to: 31
  - symbol: Bi # 105
    coordinates: [  0.700000000000001,  0.166666666666667,  0.393014803965607 ]
    mass: 208.980400
    reduced_to: 31
  - symbol: Bi # 106
    coordinates: [  0.800000000000001,  1.000000000000000,  0.393014803965607 ]
    mass: 208.980400
    reduced_to: 31
  - symbol: Bi # 107
    coordinates: [  0.200000000000001,  0.333333333333333,  0.393014803965607 ]
    mass: 208.980400
    reduced_to: 31
  - symbol: Bi # 108
    coordinates: [  0.300000000000000,  0.166666666666666,  0.393014803965607 ]
    mass: 208.980400
    reduced_to: 31
  - symbol: Bi # 109
    coordinates: [  0.400000000000001,  1.000000000000000,  0.393014803965607 ]
    mass: 208.980400
    reduced_to: 31
  - symbol: Bi # 110
    coordinates: [  0.500000000000001,  0.833333333333333,  0.393014803965607 ]
    mass: 208.980400
    reduced_to: 31
  - symbol: Bi # 111
    coordinates: [  0.600000000000001,  0.666666666666666,  0.393014803965607 ]
    mass: 208.980400
    reduced_to: 31
  - symbol: Bi # 112
    coordinates: [  0.700000000000001,  0.500000000000000,  0.393014803965607 ]
    mass: 208.980400
    reduced_to: 31
  - symbol: Bi # 113
    coordinates: [  0.800000000000001,  0.333333333333333,  0.393014803965607 ]
    mass: 208.980400
    reduced_to: 31
  - symbol: Bi # 114
    coordinates: [  0.900000000000001,  0.166666666666666,  0.393014803965607 ]
    mass: 208.980400
    reduced_to: 31
  - symbol: Bi # 115
    coordinates: [  0.800000000000000,  0.666666666666666,  0.393014803965607 ]
    mass: 208.980400
    reduced_to: 31
  - symbol: Bi # 116
    coordinates: [  0.900000000000001,  0.500000000000000,  0.393014803965607 ]
    mass: 208.980400
    reduced_to: 31
  - symbol: Bi # 117
    coordinates: [  0.000000000000001,  0.333333333333333,  0.393014803965607 ]
    mass: 208.980400
    reduced_to: 31
  - symbol: Bi # 118
    coordinates: [  0.900000000000001,  0.833333333333333,  0.393014803965607 ]
    mass: 208.980400
    reduced_to: 31
  - symbol: Bi # 119
    coordinates: [  0.000000000000001,  0.666666666666667,  0.393014803965607 ]
    mass: 208.980400
    reduced_to: 31
  - symbol: Bi # 120
    coordinates: [  0.100000000000001,  0.500000000000000,  0.393014803965607 ]
    mass: 208.980400
    reduced_to: 31
  - symbol: Bi # 121
    coordinates: [  0.100000000000001,  0.944444444444445,  0.940318529367722 ]
    mass: 208.980400
    reduced_to: 1
  - symbol: Bi # 122
    coordinates: [  0.200000000000001,  0.777777777777778,  0.940318529367722 ]
    mass: 208.980400
    reduced_to: 1
  - symbol: Bi # 123
    coordinates: [  0.300000000000001,  0.611111111111111,  0.940318529367722 ]
    mass: 208.980400
    reduced_to: 1
  - symbol: Bi # 124
    coordinates: [  0.400000000000001,  0.444444444444445,  0.940318529367722 ]
    mass: 208.980400
    reduced_to: 1
  - symbol: Bi # 125
    coordinates: [  0.500000000000001,  0.277777777777778,  0.940318529367722 ]
    mass: 208.980400
    reduced_to: 1
  - symbol: Bi # 126
    coordinates: [  0.600000000000001,  0.111111111111111,  0.940318529367722 ]
    mass: 208.980400
    reduced_to: 1
  - symbol: Bi # 127
    coordinates: [  0.700000000000001,  0.944444444444445,  0.940318529367722 ]
    mass: 208.980400
    reduced_to: 1
  - symbol: Bi # 128
    coordinates: [  0.800000000000001,  0.777777777777778,  0.940318529367722 ]
    mass: 208.980400
    reduced_to: 1
  - symbol: Bi # 129
    coordinates: [  0.200000000000001,  0.111111111111111,  0.940318529367722 ]
    mass: 208.980400
    reduced_to: 1
  - symbol: Bi # 130
    coordinates: [  0.300000000000001,  0.944444444444445,  0.940318529367722 ]
    mass: 208.980400
    reduced_to: 1
  - symbol: Bi # 131
    coordinates: [  0.400000000000001,  0.777777777777778,  0.940318529367722 ]
    mass: 208.980400
    reduced_to: 1
  - symbol: Bi # 132
    coordinates: [  0.500000000000001,  0.611111111111111,  0.940318529367722 ]
    mass: 208.980400
    reduced_to: 1
  - symbol: Bi # 133
    coordinates: [  0.600000000000001,  0.444444444444445,  0.940318529367722 ]
    mass: 208.980400
    reduced_to: 1
  - symbol: Bi # 134
    coordinates: [  0.700000000000001,  0.277777777777778,  0.940318529367722 ]
    mass: 208.980400
    reduced_to: 1
  - symbol: Bi # 135
    coordinates: [  0.800000000000001,  0.111111111111111,  0.940318529367722 ]
    mass: 208.980400
    reduced_to: 1
  - symbol: Bi # 136
    coordinates: [  0.900000000000001,  0.944444444444445,  0.940318529367722 ]
    mass: 208.980400
    reduced_to: 1
  - symbol: Bi # 137
    coordinates: [  0.300000000000001,  0.277777777777778,  0.940318529367722 ]
    mass: 208.980400
    reduced_to: 1
  - symbol: Bi # 138
    coordinates: [  0.400000000000001,  0.111111111111111,  0.940318529367722 ]
    mass: 208.980400
    reduced_to: 1
  - symbol: Bi # 139
    coordinates: [  0.500000000000001,  0.944444444444445,  0.940318529367722 ]
    mass: 208.980400
    reduced_to: 1
  - symbol: Bi # 140
    coordinates: [  0.600000000000001,  0.777777777777778,  0.940318529367722 ]
    mass: 208.980400
    reduced_to: 1
  - symbol: Bi # 141
    coordinates: [  0.700000000000001,  0.611111111111111,  0.940318529367722 ]
    mass: 208.980400
    reduced_to: 1
  - symbol: Bi # 142
    coordinates: [  0.800000000000001,  0.444444444444445,  0.940318529367722 ]
    mass: 208.980400
    reduced_to: 1
  - symbol: Bi # 143
    coordinates: [  0.900000000000001,  0.277777777777778,  0.940318529367722 ]
    mass: 208.980400
    reduced_to: 1
  - symbol: Bi # 144
    coordinates: [  0.000000000000001,  0.111111111111111,  0.940318529367722 ]
    mass: 208.980400
    reduced_to: 1
  - symbol: Bi # 145
    coordinates: [  0.900000000000001,  0.611111111111111,  0.940318529367722 ]
    mass: 208.980400
    reduced_to: 1
  - symbol: Bi # 146
    coordinates: [  0.000000000000001,  0.444444444444445,  0.940318529367722 ]
    mass: 208.980400
    reduced_to: 1
  - symbol: Bi # 147
    coordinates: [  0.100000000000001,  0.277777777777778,  0.940318529367722 ]
    mass: 208.980400
    reduced_to: 1
  - symbol: Bi # 148
    coordinates: [  0.000000000000001,  0.777777777777778,  0.940318529367722 ]
    mass: 208.980400
    reduced_to: 1
  - symbol: Bi # 149
    coordinates: [  0.100000000000001,  0.611111111111111,  0.940318529367722 ]
    mass: 208.980400
    reduced_to: 1
  - symbol: Bi # 150
    coordinates: [  0.200000000000001,  0.444444444444445,  0.940318529367722 ]
    mass: 208.980400
    reduced_to: 1
  - symbol: Bi # 151
    coordinates: [  0.100000000000000,  0.944444444444444,  0.726348137298940 ]
    mass: 208.980400
    reduced_to: 31
  - symbol: Bi # 152
    coordinates: [  0.200000000000000,  0.777777777777777,  0.726348137298940 ]
    mass: 208.980400
    reduced_to: 31
  - symbol: Bi # 153
    coordinates: [  0.300000000000000,  0.611111111111111,  0.726348137298940 ]
    mass: 208.980400
    reduced_to: 31
  - symbol: Bi # 154
    coordinates: [  0.400000000000000,  0.444444444444444,  0.726348137298940 ]
    mass: 208.980400
    reduced_to: 31
  - symbol: Bi # 155
    coordinates: [  0.500000000000000,  0.277777777777778,  0.726348137298940 ]
    mass: 208.980400
    reduced_to: 31
  - symbol: Bi # 156
    coordinates: [  0.600000000000000,  0.111111111111111,  0.726348137298940 ]
    mass: 208.980400
    reduced_to: 31
  - symbol: Bi # 157
    coordinates: [  0.700000000000000,  0.944444444444444,  0.726348137298940 ]
    mass: 208.980400
    reduced_to: 31
  - symbol: Bi # 158
    coordinates: [  0.800000000000000,  0.777777777777778,  0.726348137298940 ]
    mass: 208.980400
    reduced_to: 31
  - symbol: Bi # 159
    coordinates: [  0.200000000000000,  0.111111111111111,  0.726348137298940 ]
    mass: 208.980400
    reduced_to: 31
  - symbol: Bi # 160
    coordinates: [  0.300000000000000,  0.944444444444444,  0.726348137298940 ]
    mass: 208.980400
    reduced_to: 31
  - symbol: Bi # 161
    coordinates: [  0.400000000000000,  0.777777777777778,  0.726348137298940 ]
    mass: 208.980400
    reduced_to: 31
  - symbol: Bi # 162
    coordinates: [  0.500000000000000,  0.611111111111111,  0.726348137298940 ]
    mass: 208.980400
    reduced_to: 31
  - symbol: Bi # 163
    coordinates: [  0.600000000000001,  0.444444444444444,  0.726348137298940 ]
    mass: 208.980400
    reduced_to: 31
  - symbol: Bi # 164
    coordinates: [  0.700000000000001,  0.277777777777778,  0.726348137298940 ]
    mass: 208.980400
    reduced_to: 31
  - symbol: Bi # 165
    coordinates: [  0.800000000000000,  0.111111111111111,  0.726348137298940 ]
    mass: 208.980400
    reduced_to: 31
  - symbol: Bi # 166
    coordinates: [  0.900000000000001,  0.944444444444444,  0.726348137298940 ]
    mass: 208.980400
    reduced_to: 31
  - symbol: Bi # 167
    coordinates: [  0.300000000000000,  0.277777777777777,  0.726348137298940 ]
    mass: 208.980400
    reduced_to: 31
  - symbol: Bi # 168
    coordinates: [  0.400000000000000,  0.111111111111111,  0.726348137298940 ]
    mass: 208.980400
    reduced_to: 31
  - symbol: Bi # 169
    coordinates: [  0.500000000000000,  0.944444444444444,  0.726348137298940 ]
    mass: 208.980400
    reduced_to: 31
  - symbol: Bi # 170
    coordinates: [  0.600000000000000,  0.777777777777777,  0.726348137298940 ]
    mass: 208.980400
    reduced_to: 31
  - symbol: Bi # 171
    coordinates: [  0.700000000000001,  0.611111111111111,  0.726348137298940 ]
    mass: 208.980400
    reduced_to: 31
  - symbol: Bi # 172
    coordinates: [  0.800000000000000,  0.444444444444444,  0.726348137298940 ]
    mass: 208.980400
    reduced_to: 31
  - symbol: Bi # 173
    coordinates: [  0.900000000000000,  0.277777777777777,  0.726348137298940 ]
    mass: 208.980400
    reduced_to: 31
  - symbol: Bi # 174
    coordinates: [  0.000000000000000,  0.111111111111111,  0.726348137298940 ]
    mass: 208.980400
    reduced_to: 31
  - symbol: Bi # 175
    coordinates: [  0.900000000000000,  0.611111111111111,  0.726348137298940 ]
    mass: 208.980400
    reduced_to: 31
  - symbol: Bi # 176
    coordinates: [  0.000000000000000,  0.444444444444444,  0.726348137298940 ]
    mass: 208.980400
    reduced_to: 31
  - symbol: Bi # 177
    coordinates: [  0.100000000000001,  0.277777777777778,  0.726348137298940 ]
    mass: 208.980400
    reduced_to: 31
  - symbol: Bi # 178
    coordinates: [  0.000000000000000,  0.777777777777778,  0.726348137298940 ]
    mass: 208.980400
    reduced_to: 31
  - symbol: Bi # 179
    coordinates: [  0.100000000000001,  0.611111111111111,  0.726348137298940 ]
    mass: 208.980400
    reduced_to: 31
  - symbol: Bi # 180
    coordinates: [  0.200000000000001,  0.444444444444444,  0.726348137298940 ]
    mass: 208.980400
    reduced_to: 31
  - symbol: Te # 181
    coordinates: [  0.000000000000000,  0.000000000000000,  0.217132212029932 ]
    mass: 127.600000
    reduced_to: 181
  - symbol: Te # 182
    coordinates: [  0.100000000000000,  0.833333333333333,  0.217132212029932 ]
    mass: 127.600000
    reduced_to: 181
  - symbol: Te # 183
    coordinates: [  0.200000000000001,  0.666666666666667,  0.217132212029932 ]
    mass: 127.600000
    reduced_to: 181
  - symbol: Te # 184
    coordinates: [  0.300000000000001,  0.500000000000000,  0.217132212029932 ]
    mass: 127.600000
    reduced_to: 181