phonopy:
  version: "2.21.0"
  frequency_unit_conversion_factor: 15.633302
  symmetry_tolerance: 1.00000e-04

space_group:
  type: "I4_1/acd"
  number: 142
  Hall_symbol: "I 4bw 2aw -1bw"

primitive_matrix:
- [ -0.500000000000000,  0.500000000000000,  0.500000000000000 ]
- [  0.500000000000000, -0.500000000000000,  0.500000000000000 ]
- [  0.500000000000000,  0.500000000000000, -0.500000000000000 ]

supercell_matrix:
- [   2,   0,   0 ]
- [   0,   2,   0 ]
- [   0,   0,   2 ]

primitive_cell:
  lattice:
  - [    -5.762429738789002,     5.762429738789002,     9.449668169341136 ] # a
  - [     5.762429738789004,    -5.762429738789001,     9.449668169341136 ] # b
  - [     5.762429738789002,     5.762429738789001,    -9.449668169341136 ] # c
  points:
  - symbol: K  # 1
    coordinates: [  0.259239051175049,  0.875000000000000,  0.884239051175049 ]
    mass: 39.098300
  - symbol: K  # 2
    coordinates: [  0.625000000000000,  0.240760948824950,  0.115760948824950 ]
    mass: 39.098300
  - symbol: K  # 3
    coordinates: [  0.125000000000000,  0.509239051175049,  0.884239051175049 ]
    mass: 39.098300
  - symbol: K  # 4
    coordinates: [  0.990760948824951,  0.375000000000000,  0.115760948824950 ]
    mass: 39.098300
  - symbol: K  # 5
    coordinates: [  0.490760948824950,  0.375000000000000,  0.615760948824950 ]
    mass: 39.098300
  - symbol: K  # 6
    coordinates: [  0.125000000000000,  0.009239051175049,  0.384239051175049 ]
    mass: 39.098300
  - symbol: K  # 7
    coordinates: [  0.625000000000000,  0.740760948824951,  0.615760948824951 ]
    mass: 39.098300
  - symbol: K  # 8
    coordinates: [  0.759239051175049,  0.875000000000000,  0.384239051175049 ]
    mass: 39.098300
  - symbol: K  # 9
    coordinates: [  0.373670597248907,  0.373670597248907,  0.247341194497814 ]
    mass: 39.098300
  - symbol: K  # 10
    coordinates: [  0.123670597248907,  0.376329402751092,  0.500000000000000 ]
    mass: 39.098300
  - symbol: K  # 11
    coordinates: [  0.876329402751093,  0.623670597248907,  0.500000000000000 ]
    mass: 39.098300
  - symbol: K  # 12
    coordinates: [  0.126329402751093,  0.126329402751092,  0.752658805502185 ]
    mass: 39.098300
  - symbol: K  # 13
    coordinates: [  0.376329402751093,  0.876329402751093,  0.252658805502185 ]
    mass: 39.098300
  - symbol: K  # 14
    coordinates: [  0.626329402751093,  0.873670597248907,  1.000000000000000 ]
    mass: 39.098300
  - symbol: K  # 15
    coordinates: [  0.873670597248907,  0.626329402751093,  1.000000000000000 ]
    mass: 39.098300
  - symbol: K  # 16
    coordinates: [  0.623670597248907,  0.123670597248907,  0.747341194497814 ]
    mass: 39.098300
  - symbol: Sn # 17
    coordinates: [  0.507439481300808,  0.557469428912961,  0.177477565129702 ]
    mass: 118.710000
  - symbol: Sn # 18
    coordinates: [  0.307469428912961,  0.629991863783258,  0.550029947612153 ]
    mass: 118.710000
  - symbol: Sn # 19
    coordinates: [  0.079961916171105,  0.757439481300807,  0.449970052387847 ]
    mass: 118.710000
  - symbol: Sn # 20
    coordinates: [  0.742560518699192,  0.420038083828895,  0.550029947612153 ]
    mass: 118.710000
  - symbol: Sn # 21
    coordinates: [  0.870008136216742,  0.192530571087039,  0.449970052387846 ]
    mass: 118.710000
  - symbol: Sn # 22
    coordinates: [  0.170038083828895,  0.120008136216742,  0.177477565129702 ]
    mass: 118.710000
  - symbol: Sn # 23
    coordinates: [  0.942530571087039,  0.992560518699192,  0.822522434870297 ]
    mass: 118.710000
  - symbol: Sn # 24
    coordinates: [  0.379991863783258,  0.329961916171105,  0.822522434870297 ]
    mass: 118.710000
  - symbol: Sn # 25
    coordinates: [  0.242560518699192,  0.692530571087039,  0.322522434870297 ]
    mass: 118.710000
  - symbol: Sn # 26
    coordinates: [  0.442530571087039,  0.620008136216742,  0.949970052387847 ]
    mass: 118.710000
  - symbol: Sn # 27
    coordinates: [  0.670038083828895,  0.492560518699192,  0.050029947612153 ]
    mass: 118.710000
  - symbol: Sn # 28
    coordinates: [  0.007439481300807,  0.829961916171105,  0.949970052387846 ]
    mass: 118.710000
  - symbol: Sn # 29
    coordinates: [  0.879991863783258,  0.057469428912961,  0.050029947612153 ]
    mass: 118.710000
  - symbol: Sn # 30
    coordinates: [  0.579961916171105,  0.129991863783258,  0.322522434870297 ]
    mass: 118.710000
  - symbol: Sn # 31
    coordinates: [  0.807469428912961,  0.257439481300807,  0.677477565129702 ]
    mass: 118.710000
  - symbol: Sn # 32
    coordinates: [  0.370008136216742,  0.920038083828895,  0.677477565129702 ]
    mass: 118.710000
  reciprocal_lattice: # without 2pi
  - [     0.000000000000000,     0.086768953838052,     0.052911910877698 ] # a*
  - [     0.086768953838052,     0.000000000000000,     0.052911910877698 ] # b*
  - [     0.086768953838052,     0.086768953838052,    -0.000000000000000 ] # c*

unit_cell:
  lattice:
  - [    11.524859477578003,    -0.000000000000000,     0.000000000000001 ] # a
  - [    -0.000000000000001,    11.524859477578003,     0.000000000000001 ] # b
  - [    -0.000000000000000,    -0.000000000000000,    18.899336338682271 ] # c
  points:
  - symbol: K  # 1
    coordinates: [  0.250000000000000,  0.634239051175049,  0.625000000000000 ]
    mass: 39.098300
    reduced_to: 1
  - symbol: K  # 2
    coordinates: [  0.865760948824951,  0.250000000000000,  0.375000000000000 ]
    mass: 39.098300
    reduced_to: 2
  - symbol: K  # 3
    coordinates: [  0.134239051175049,  0.750000000000000,  0.375000000000000 ]
    mass: 39.098300
    reduced_to: 3
  - symbol: K  # 4
    coordinates: [  0.750000000000000,  0.365760948824951,  0.625000000000000 ]
    mass: 39.098300
    reduced_to: 4
  - symbol: K  # 5
    coordinates: [  0.750000000000000,  0.865760948824951,  0.625000000000000 ]
    mass: 39.098300
    reduced_to: 5
  - symbol: K  # 6
    coordinates: [  0.634239051175049,  0.750000000000000,  0.375000000000000 ]
    mass: 39.098300
    reduced_to: 6
  - symbol: K  # 7
    coordinates: [  0.365760948824951,  0.250000000000000,  0.375000000000000 ]
    mass: 39.098300
    reduced_to: 7
  - symbol: K  # 8
    coordinates: [  0.250000000000000,  0.134239051175049,  0.625000000000000 ]
    mass: 39.098300
    reduced_to: 8
  - symbol: K  # 9
    coordinates: [  0.123670597248907,  0.123670597248907,  0.250000000000000 ]
    mass: 39.098300
    reduced_to: 9
  - symbol: K  # 10
    coordinates: [  0.876329402751093,  0.623670597248907,  0.500000000000000 ]
    mass: 39.098300
    reduced_to: 10
  - symbol: K  # 11
    coordinates: [  0.123670597248907,  0.376329402751093,  0.500000000000000 ]
    mass: 39.098300
    reduced_to: 11
  - symbol: K  # 12
    coordinates: [  0.876329402751093,  0.876329402751093,  0.250000000000000 ]
    mass: 39.098300
    reduced_to: 12
  - symbol: K  # 13
    coordinates: [  0.376329402751093,  0.876329402751093,  0.500000000000000 ]
    mass: 39.098300
    reduced_to: 13
  - symbol: K  # 14
    coordinates: [  0.623670597248907,  0.376329402751093,  0.250000000000000 ]
    mass: 39.098300
    reduced_to: 14
  - symbol: K  # 15
    coordinates: [  0.376329402751093,  0.623670597248907,  0.250000000000000 ]
    mass: 39.098300
    reduced_to: 15
  - symbol: K  # 16
    coordinates: [  0.623670597248907,  0.123670597248907,  0.500000000000000 ]
    mass: 39.098300
    reduced_to: 16
  - symbol: K  # 17
    coordinates: [  0.750000000000000,  0.134239051175049,  0.125000000000000 ]
    mass: 39.098300
    reduced_to: 1
  - symbol: K  # 18
    coordinates: [  0.365760948824951,  0.750000000000000,  0.875000000000000 ]
    mass: 39.098300
    reduced_to: 2
  - symbol: K  # 19
    coordinates: [  0.634239051175049,  0.250000000000000,  0.875000000000000 ]
    mass: 39.098300
    reduced_to: 3
  - symbol: K  # 20
    coordinates: [  0.250000000000000,  0.865760948824951,  0.125000000000000 ]
    mass: 39.098300
    reduced_to: 4
  - symbol: K  # 21
    coordinates: [  0.250000000000000,  0.365760948824951,  0.125000000000000 ]
    mass: 39.098300
    reduced_to: 5
  - symbol: K  # 22
    coordinates: [  0.134239051175049,  0.250000000000000,  0.875000000000000 ]
    mass: 39.098300
    reduced_to: 6
  - symbol: K  # 23
    coordinates: [  0.865760948824951,  0.750000000000000,  0.875000000000000 ]
    mass: 39.098300
    reduced_to: 7
  - symbol: K  # 24
    coordinates: [  0.750000000000000,  0.634239051175049,  0.125000000000000 ]
    mass: 39.098300
    reduced_to: 8
  - symbol: K  # 25
    coordinates: [  0.623670597248907,  0.623670597248907,  0.750000000000000 ]
    mass: 39.098300
    reduced_to: 9
  - symbol: K  # 26
    coordinates: [  0.376329402751093,  0.123670597248907, -0.000000000000000 ]
    mass: 39.098300
    reduced_to: 10
  - symbol: K  # 27
    coordinates: [  0.623670597248907,  0.876329402751093, -0.000000000000000 ]
    mass: 39.098300
    reduced_to: 11
  - symbol: K  # 28
    coordinates: [  0.376329402751093,  0.376329402751093,  0.750000000000000 ]
    mass: 39.098300
    reduced_to: 12
  - symbol: K  # 29
    coordinates: [  0.876329402751093,  0.376329402751093, -0.000000000000000 ]
    mass: 39.098300
    reduced_to: 13
  - symbol: K  # 30
    coordinates: [  0.123670597248907,  0.876329402751093,  0.750000000000000 ]
    mass: 39.098300
    reduced_to: 14
  - symbol: K  # 31
    coordinates: [  0.876329402751093,  0.123670597248907,  0.750000000000000 ]
    mass: 39.098300
    reduced_to: 15
  - symbol: K  # 32
    coordinates: [  0.123670597248907,  0.623670597248907, -0.000000000000000 ]
    mass: 39.098300
    reduced_to: 16
  - symbol: Sn # 33
    coordinates: [  0.113753756370928,  0.063723808758775,  0.443715672542033 ]
    mass: 118.710000
    reduced_to: 33
  - symbol: Sn # 34
    coordinates: [  0.436276191241225,  0.113753756370928,  0.193715672542033 ]
    mass: 118.710000
    reduced_to: 34
  - symbol: Sn # 35
    coordinates: [  0.563723808758775,  0.886246243629072,  0.193715672542033 ]
    mass: 118.710000
    reduced_to: 35
  - symbol: Sn # 36
    coordinates: [  0.113753756370928,  0.436276191241225,  0.306284327457967 ]
    mass: 118.710000
    reduced_to: 36
  - symbol: Sn # 37
    coordinates: [  0.886246243629072,  0.563723808758775,  0.306284327457967 ]
    mass: 118.710000
    reduced_to: 37
  - symbol: Sn # 38
    coordinates: [  0.563723808758775,  0.613753756370928,  0.556284327457967 ]
    mass: 118.710000
    reduced_to: 38
  - symbol: Sn # 39
    coordinates: [  0.436276191241225,  0.386246243629072,  0.556284327457967 ]
    mass: 118.710000
    reduced_to: 39
  - symbol: Sn # 40
    coordinates: [  0.886246243629072,  0.936276191241225,  0.443715672542033 ]
    mass: 118.710000
    reduced_to: 40
  - symbol: Sn # 41
    coordinates: [  0.386246243629072,  0.936276191241225,  0.306284327457967 ]
    mass: 118.710000
    reduced_to: 41
  - symbol: Sn # 42
    coordinates: [  0.063723808758775,  0.886246243629072,  0.556284327457967 ]
    mass: 118.710000
    reduced_to: 42
  - symbol: Sn # 43
    coordinates: [  0.936276191241225,  0.113753756370928,  0.556284327457967 ]
    mass: 118.710000
    reduced_to: 43
  - symbol: Sn # 44
    coordinates: [  0.386246243629072,  0.563723808758775,  0.443715672542033 ]
    mass: 118.710000
    reduced_to: 44
  - symbol: Sn # 45
    coordinates: [  0.613753756370928,  0.436276191241225,  0.443715672542033 ]
    mass: 118.710000
    reduced_to: 45
  - symbol: Sn # 46
    coordinates: [  0.936276191241225,  0.386246243629072,  0.193715672542033 ]
    mass: 118.710000
    reduced_to: 46
  - symbol: Sn # 47
    coordinates: [  0.063723808758775,  0.613753756370928,  0.193715672542033 ]
    mass: 118.710000
    reduced_to: 47
  - symbol: Sn # 48
    coordinates: [  0.613753756370928,  0.063723808758775,  0.306284327457967 ]
    mass: 118.710000
    reduced_to: 48
  - symbol: Sn # 49
    coordinates: [  0.613753756370928,  0.563723808758775,  0.943715672542033 ]
    mass: 118.710000
    reduced_to: 33
  - symbol: Sn # 50
    coordinates: [  0.936276191241225,  0.613753756370928,  0.693715672542033 ]
    mass: 118.710000
    reduced_to: 34
  - symbol: Sn # 51
    coordinates: [  0.063723808758775,  0.386246243629072,  0.693715672542033 ]
    mass: 118.710000
    reduced_to: 35
  - symbol: Sn # 52
    coordinates: [  0.613753756370928,  0.936276191241225,  0.806284327457967 ]
    mass: 118.710000
    reduced_to: 36
  - symbol: Sn # 53
    coordinates: [  0.386246243629072,  0.063723808758775,  0.806284327457967 ]
    mass: 118.710000
    reduced_to: 37
  - symbol: Sn # 54
    coordinates: [  0.063723808758775,  0.113753756370928,  0.056284327457967 ]
    mass: 118.710000
    reduced_to: 38
  - symbol: Sn # 55
    coordinates: [  0.936276191241225,  0.886246243629072,  0.056284327457967 ]
    mass: 118.710000
    reduced_to: 39
  - symbol: Sn # 56
    coordinates: [  0.386246243629072,  0.436276191241225,  0.943715672542033 ]
    mass: 118.710000
    reduced_to: 40
  - symbol: Sn # 57
    coordinates: [  0.886246243629072,  0.436276191241225,  0.806284327457967 ]
    mass: 118.710000
    reduced_to: 41
  - symbol: Sn # 58
    coordinates: [  0.563723808758775,  0.386246243629072,  0.056284327457967 ]
    mass: 118.710000
    reduced_to: 42
  - symbol: Sn # 59
    coordinates: [  0.436276191241225,  0.613753756370928,  0.056284327457967 ]
    mass: 118.710000
    reduced_to: 43
  - symbol: Sn # 60
    coordinates: [  0.886246243629072,  0.063723808758775,  0.943715672542033 ]
    mass: 118.710000
    reduced_to: 44
  - symbol: Sn # 61
    coordinates: [  0.113753756370928,  0.936276191241225,  0.943715672542033 ]
    mass: 118.710000
    reduced_to: 45
  - symbol: Sn # 62
    coordinates: [  0.436276191241225,  0.886246243629072,  0.693715672542033 ]
    mass: 118.710000
    reduced_to: 46
  - symbol: Sn # 63
    coordinates: [  0.563723808758775,  0.113753756370928,  0.693715672542033 ]
    mass: 118.710000
    reduced_to: 47
  - symbol: Sn # 64
    coordinates: [  0.113753756370928,  0.563723808758775,  0.806284327457967 ]
    mass: 118.710000
    reduced_to: 48

supercell:
  lattice:
  - [    23.049718955156006,     0.000000000000000,     0.000000000000001 ] # a
  - [    -0.000000000000001,    23.049718955156006,     0.000000000000001 ] # b
  - [     0.000000000000000,     0.000000000000000,    37.798672677364543 ] # c
  points:
  - symbol: K  # 1
    coordinates: [  0.125000000000000,  0.317119525587525,  0.312500000000000 ]
    mass: 39.098300
    reduced_to: 1
  - symbol: K  # 2
    coordinates: [  0.625000000000000,  0.317119525587525,  0.312500000000000 ]
    mass: 39.098300
    reduced_to: 1
  - symbol: K  # 3
    coordinates: [  0.125000000000000,  0.817119525587525,  0.312500000000000 ]
    mass: 39.098300
    reduced_to: 1
  - symbol: K  # 4
    coordinates: [  0.625000000000000,  0.817119525587525,  0.312500000000000 ]
    mass: 39.098300
    reduced_to: 1
  - symbol: K  # 5
    coordinates: [  0.125000000000000,  0.317119525587525,  0.812500000000000 ]
    mass: 39.098300
    reduced_to: 1
  - symbol: K  # 6
    coordinates: [  0.625000000000000,  0.317119525587525,  0.812500000000000 ]
    mass: 39.098300
    reduced_to: 1
  - symbol: K  # 7
    coordinates: [  0.125000000000000,  0.817119525587525,  0.812500000000000 ]
    mass: 39.098300
    reduced_to: 1
  - symbol: K  # 8
    coordinates: [  0.625000000000000,  0.817119525587525,  0.812500000000000 ]
    mass: 39.098300
    reduced_to: 1
  - symbol: K  # 9
    coordinates: [  0.432880474412475,  0.125000000000000,  0.187500000000000 ]
    mass: 39.098300
    reduced_to: 9
  - symbol: K  # 10
    coordinates: [  0.932880474412475,  0.125000000000000,  0.187500000000000 ]
    mass: 39.098300
    reduced_to: 9
  - symbol: K  # 11
    coordinates: [  0.432880474412475,  0.625000000000000,  0.187500000000000 ]
    mass: 39.098300
    reduced_to: 9
  - symbol: K  # 12
    coordinates: [  0.932880474412475,  0.625000000000000,  0.187500000000000 ]
    mass: 39.098300
    reduced_to: 9
  - symbol: K  # 13
    coordinates: [  0.432880474412475,  0.125000000000000,  0.687500000000000 ]
    mass: 39.098300
    reduced_to: 9
  - symbol: K  # 14
    coordinates: [  0.932880474412475,  0.125000000000000,  0.687500000000000 ]
    mass: 39.098300
    reduced_to: 9
  - symbol: K  # 15
    coordinates: [  0.432880474412475,  0.625000000000000,  0.687500000000000 ]
    mass: 39.098300
    reduced_to: 9
  - symbol: K  # 16
    coordinates: [  0.932880474412475,  0.625000000000000,  0.687500000000000 ]
    mass: 39.098300
    reduced_to: 9
  - symbol: K  # 17
    coordinates: [  0.067119525587525,  0.375000000000000,  0.187500000000000 ]
    mass: 39.098300
    reduced_to: 17
  - symbol: K  # 18
    coordinates: [  0.567119525587525,  0.375000000000000,  0.187500000000000 ]
    mass: 39.098300
    reduced_to: 17
  - symbol: K  # 19
    coordinates: [  0.067119525587525,  0.875000000000000,  0.187500000000000 ]
    mass: 39.098300
    reduced_to: 17
  - symbol: K  # 20
    coordinates: [  0.567119525587525,  0.875000000000000,  0.187500000000000 ]
    mass: 39.098300
    reduced_to: 17
  - symbol: K  # 21
    coordinates: [  0.067119525587525,  0.375000000000000,  0.687500000000000 ]
    mass: 39.098300
    reduced_to: 17
  - symbol: K  # 22
    coordinates: [  0.567119525587525,  0.375000000000000,  0.687500000000000 ]
    mass: 39.098300
    reduced_to: 17
  - symbol: K  # 23
    coordinates: [  0.067119525587525,  0.875000000000000,  0.687500000000000 ]
    mass: 39.098300
    reduced_to: 17
  - symbol: K  # 24
    coordinates: [  0.567119525587525,  0.875000000000000,  0.687500000000000 ]
    mass: 39.098300
    reduced_to: 17
  - symbol: K  # 25
    coordinates: [  0.375000000000000,  0.182880474412475,  0.312500000000000 ]
    mass: 39.098300
    reduced_to: 25
  - symbol: K  # 26
    coordinates: [  0.875000000000000,  0.182880474412475,  0.312500000000000 ]
    mass: 39.098300
    reduced_to: 25
  - symbol: K  # 27
    coordinates: [  0.375000000000000,  0.682880474412475,  0.312500000000000 ]
    mass: 39.098300
    reduced_to: 25
  - symbol: K  # 28
    coordinates: [  0.875000000000000,  0.682880474412475,  0.312500000000000 ]
    mass: 39.098300
    reduced_to: 25
  - symbol: K  # 29
    coordinates: [  0.375000000000000,  0.182880474412475,  0.812500000000000 ]
    mass: 39.098300
    reduced_to: 25
  - symbol: K  # 30
    coordinates: [  0.875000000000000,  0.182880474412475,  0.812500000000000 ]
    mass: 39.098300
    reduced_to: 25
  - symbol: K  # 31
    coordinates: [  0.375000000000000,  0.682880474412475,  0.812500000000000 ]
    mass: 39.098300
    reduced_to: 25
  - symbol: K  # 32
    coordinates: [  0.875000000000000,  0.682880474412475,  0.812500000000000 ]
    mass: 39.098300
    reduced_to: 25
  - symbol: K  # 33
    coordinates: [  0.375000000000000,  0.432880474412475,  0.312500000000000 ]
    mass: 39.098300
    reduced_to: 33
  - symbol: K  # 34
    coordinates: [  0.875000000000000,  0.432880474412475,  0.312500000000000 ]
    mass: 39.098300
    reduced_to: 33
  - symbol: K  # 35
    coordinates: [  0.375000000000000,  0.932880474412475,  0.312500000000000 ]
    mass: 39.098300
    reduced_to: 33
  - symbol: K  # 36
    coordinates: [  0.875000000000000,  0.932880474412475,  0.312500000000000 ]
    mass: 39.098300
    reduced_to: 33
  - symbol: K  # 37
    coordinates: [  0.375000000000000,  0.432880474412475,  0.812500000000000 ]
    mass: 39.098300
    reduced_to: 33
  - symbol: K  # 38
    coordinates: [  0.875000000000000,  0.432880474412475,  0.812500000000000 ]
    mass: 39.098300
    reduced_to: 33
  - symbol: K  # 39
    coordinates: [  0.375000000000000,  0.932880474412475,  0.812500000000000 ]
    mass: 39.098300
    reduced_to: 33
  - symbol: K  # 40
    coordinates: [  0.875000000000000,  0.932880474412475,  0.812500000000000 ]
    mass: 39.098300
    reduced_to: 33
  - symbol: K  # 41
    coordinates: [  0.317119525587525,  0.375000000000000,  0.187500000000000 ]
    mass: 39.098300
    reduced_to: 41
  - symbol: K  # 42
    coordinates: [  0.817119525587525,  0.375000000000000,  0.187500000000000 ]
    mass: 39.098300
    reduced_to: 41
  - symbol: K  # 43
    coordinates: [  0.317119525587525,  0.875000000000000,  0.187500000000000 ]
    mass: 39.098300
    reduced_to: 41
  - symbol: K  # 44
    coordinates: [  0.817119525587525,  0.875000000000000,  0.187500000000000 ]
    mass: 39.098300
    reduced_to: 41
  - symbol: K  # 45
    coordinates: [  0.317119525587525,  0.375000000000000,  0.687500000000000 ]
    mass: 39.098300
    reduced_to: 41
  - symbol: K  # 46
    coordinates: [  0.817119525587525,  0.375000000000000,  0.687500000000000 ]
    mass: 39.098300
    reduced_to: 41
  - symbol: K  # 47
    coordinates: [  0.317119525587525,  0.875000000000000,  0.687500000000000 ]
    mass: 39.098300
    reduced_to: 41
  - symbol: K  # 48
    coordinates: [  0.817119525587525,  0.875000000000000,  0.687500000000000 ]
    mass: 39.098300
    reduced_to: 41
  - symbol: K  # 49
    coordinates: [  0.182880474412475,  0.125000000000000,  0.187500000000000 ]
    mass: 39.098300
    reduced_to: 49
  - symbol: K  # 50
    coordinates: [  0.682880474412475,  0.125000000000000,  0.187500000000000 ]
    mass: 39.098300
    reduced_to: 49
  - symbol: K  # 51
    coordinates: [  0.182880474412475,  0.625000000000000,  0.187500000000000 ]
    mass: 39.098300
    reduced_to: 49
  - symbol: K  # 52
    coordinates: [  0.682880474412475,  0.625000000000000,  0.187500000000000 ]
    mass: 39.098300
    reduced_to: 49
  - symbol: K  # 53
    coordinates: [  0.182880474412475,  0.125000000000000,  0.687500000000000 ]
    mass: 39.098300
    reduced_to: 49
  - symbol: K  # 54
    coordinates: [  0.682880474412475,  0.125000000000000,  0.687500000000000 ]
    mass: 39.098300
    reduced_to: 49
  - symbol: K  # 55
    coordinates: [  0.182880474412475,  0.625000000000000,  0.687500000000000 ]
    mass: 39.098300
    reduced_to: 49
  - symbol: K  # 56
    coordinates: [  0.682880474412475,  0.625000000000000,  0.687500000000000 ]
    mass: 39.098300
    reduced_to: 49
  - symbol: K  # 57
    coordinates: [  0.125000000000000,  0.067119525587525,  0.312500000000000 ]
    mass: 39.098300
    reduced_to: 57
  - symbol: K  # 58
    coordinates: [  0.625000000000000,  0.067119525587525,  0.312500000000000 ]
    mass: 39.098300
    reduced_to: 57
  - symbol: K  # 59
    coordinates: [  0.125000000000000,  0.567119525587525,  0.312500000000000 ]
    mass: 39.098300
    reduced_to: 57
  - symbol: K  # 60
    coordinates: [  0.625000000000000,  0.567119525587525,  0.312500000000000 ]
    mass: 39.098300
    reduced_to: 57
  - symbol: K  # 61
    coordinates: [  0.125000000000000,  0.067119525587525,  0.812500000000000 ]
    mass: 39.098300
    reduced_to: 57
  - symbol: K  # 62
    coordinates: [  0.625000000000000,  0.067119525587525,  0.812500000000000 ]
    mass: 39.098300
    reduced_to: 57
  - symbol: K  # 63
    coordinates: [  0.125000000000000,  0.567119525587525,  0.812500000000000 ]
    mass: 39.098300
    reduced_to: 57
  - symbol: K  # 64
    coordinates: [  0.625000000000000,  0.567119525587525,  0.812500000000000 ]
    mass: 39.098300
    reduced_to: 57
  - symbol: K  # 65
    coordinates: [  0.061835298624454,  0.061835298624454,  0.125000000000000 ]
    mass: 39.098300
    reduced_to: 65
  - symbol: K  # 66
    coordinates: [  0.561835298624454,  0.061835298624454,  0.125000000000000 ]
    mass: 39.098300
    reduced_to: 65
  - symbol: K  # 67
    coordinates: [  0.061835298624454,  0.561835298624454,  0.125000000000000 ]
    mass: 39.098300
    reduced_to: 65
  - symbol: K  # 68
    coordinates: [  0.561835298624454,  0.561835298624454,  0.125000000000000 ]
    mass: 39.098300
    reduced_to: 65
  - symbol: K  # 69
    coordinates: [  0.061835298624454,  0.061835298624454,  0.625000000000000 ]
    mass: 39.098300
    reduced_to: 65
  - symbol: K  # 70
    coordinates: [  0.561835298624454,  0.061835298624454,  0.625000000000000 ]
    mass: 39.098300
    reduced_to: 65
  - symbol: K  # 71
    coordinates: [  0.061835298624454,  0.561835298624454,  0.625000000000000 ]
    mass: 39.098300
    reduced_to: 65
  - symbol: K  # 72
    coordinates: [  0.561835298624454,  0.561835298624454,  0.625000000000000 ]
    mass: 39.098300
    reduced_to: 65
  - symbol: K  # 73
    coordinates: [  0.438164701375546,  0.311835298624454,  0.250000000000000 ]
    mass: 39.098300
    reduced_to: 73
  - symbol: K  # 74
    coordinates: [  0.938164701375546,  0.311835298624454,  0.250000000000000 ]
    mass: 39.098300
    reduced_to: 73
  - symbol: K  # 75
    coordinates: [  0.438164701375546,  0.811835298624454,  0.250000000000000 ]
    mass: 39.098300
    reduced_to: 73
  - symbol: K  # 76
    coordinates: [  0.938164701375546,  0.811835298624454,  0.250000000000000 ]
    mass: 39.098300
    reduced_to: 73
  - symbol: K  # 77
    coordinates: [  0.438164701375546,  0.311835298624454,  0.750000000000000 ]
    mass: 39.098300
    reduced_to: 73
  - symbol: K  # 78
    coordinates: [  0.938164701375546,  0.311835298624454,  0.750000000000000 ]
    mass: 39.098300
    reduced_to: 73
  - symbol: K  # 79
    coordinates: [  0.438164701375546,  0.811835298624454,  0.750000000000000 ]
    mass: 39.098300
    reduced_to: 73
  - symbol: K  # 80
    coordinates: [  0.938164701375546,  0.811835298624454,  0.750000000000000 ]
    mass: 39.098300
    reduced_to: 73
  - symbol: K  # 81
    coordinates: [  0.061835298624454,  0.188164701375546,  0.250000000000000 ]
    mass: 39.098300
    reduced_to: 81
  - symbol: K  # 82
    coordinates: [  0.561835298624454,  0.188164701375546,  0.250000000000000 ]
    mass: 39.098300
    reduced_to: 81
  - symbol: K  # 83
    coordinates: [  0.061835298624454,  0.688164701375546,  0.250000000000000 ]
    mass: 39.098300
    reduced_to: 81
  - symbol: K  # 84
    coordinates: [  0.561835298624454,  0.688164701375546,  0.250000000000000 ]
    mass: 39.098300
    reduced_to: 81
  - symbol: K  # 85
    coordinates: [  0.061835298624454,  0.188164701375546,  0.750000000000000 ]
    mass: 39.098300
    reduced_to: 81
  - symbol: K  # 86
    coordinates: [  0.561835298624454,  0.188164701375546,  0.750000000000000 ]
    mass: 39.098300
    reduced_to: 81
  - symbol: K  # 87
    coordinates: [  0.061835298624454,  0.688164701375546,  0.750000000000000 ]
    mass: 39.098300
    reduced_to: 81
  - symbol: K  # 88
    coordinates: [  0.561835298624454,  0.688164701375546,  0.750000000000000 ]
    mass: 39.098300
    reduced_to: 81
  - symbol: K  # 89
    coordinates: [  0.438164701375546,  0.438164701375546,  0.125000000000000 ]
    mass: 39.098300
    reduced_to: 89
  - symbol: K  # 90
    coordinates: [  0.938164701375546,  0.438164701375546,  0.125000000000000 ]
    mass: 39.098300
    reduced_to: 89
  - symbol: K  # 91
    coordinates: [  0.438164701375546,  0.938164701375546,  0.125000000000000 ]
    mass: 39.098300
    reduced_to: 89
  - symbol: K  # 92
    coordinates: [  0.938164701375546,  0.938164701375546,  0.125000000000000 ]
    mass: 39.098300
    reduced_to: 89
  - symbol: K  # 93
    coordinates: [  0.438164701375546,  0.438164701375546,  0.625000000000000 ]
    mass: 39.098300
    reduced_to: 89
  - symbol: K  # 94
    coordinates: [  0.938164701375546,  0.438164701375546,  0.625000000000000 ]
    mass: 39.098300
    reduced_to: 89
  - symbol: K  # 95
    coordinates: [  0.438164701375546,  0.938164701375546,  0.625000000000000 ]
    mass: 39.098300
    reduced_to: 89
  - symbol: K  # 96
    coordinates: [  0.938164701375546,  0.938164701375546,  0.625000000000000 ]
    mass: 39.098300
    reduced_to: 89
  - symbol: K  # 97
    coordinates: [  0.188164701375546,  0.438164701375546,  0.250000000000000 ]
    mass: 39.098300
    reduced_to: 97
  - symbol: K  # 98
    coordinates: [  0.688164701375546,  0.438164701375546,  0.250000000000000 ]
    mass: 39.098300
    reduced_to: 97
  - symbol: K  # 99
    coordinates: [  0.188164701375546,  0.938164701375546,  0.250000000000000 ]
    mass: 39.098300
    reduced_to: 97
  - symbol: K  # 100
    coordinates: [  0.688164701375546,  0.938164701375546,  0.250000000000000 ]
    mass: 39.098300
    reduced_to: 97
  - symbol: K  # 101
    coordinates: [  0.188164701375546,  0.438164701375546,  0.750000000000000 ]
    mass: 39.098300
    reduced_to: 97
  - symbol: K  # 102
    coordinates: [  0.688164701375546,  0.438164701375546,  0.750000000000000 ]
    mass: 39.098300
    reduced_to: 97
  - symbol: K  # 103
    coordinates: [  0.188164701375546,  0.938164701375546,  0.750000000000000 ]
    mass: 39.098300
    reduced_to: 97
  - symbol: K  # 104
    coordinates: [  0.688164701375546,  0.938164701375546,  0.750000000000000 ]
    mass: 39.098300
    reduced_to: 97
  - symbol: K  # 105
    coordinates: [  0.311835298624454,  0.188164701375546,  0.125000000000000 ]
    mass: 39.098300
    reduced_to: 105
  - symbol: K  # 106
    coordinates: [  0.811835298624454,  0.188164701375546,  0.125000000000000 ]
    mass: 39.098300
    reduced_to: 105
  - symbol: K  # 107
    coordinates: [  0.311835298624454,  0.688164701375546,  0.125000000000000 ]
    mass: 39.098300
    reduced_to: 105
  - symbol: K  # 108
    coordinates: [  0.811835298624454,  0.688164701375546,  0.125000000000000 ]
    mass: 39.098300
    reduced_to: 105
  - symbol: K  # 109
    coordinates: [  0.311835298624454,  0.188164701375546,  0.625000000000000 ]
    mass: 39.098300
    reduced_to: 105
  - symbol: K  # 110
    coordinates: [  0.811835298624454,  0.188164701375546,  0.625000000000000 ]
    mass: 39.098300
    reduced_to: 105
  - symbol: K  # 111
    coordinates: [  0.311835298624454,  0.688164701375546,  0.625000000000000 ]
    mass: 39.098300
    reduced_to: 105
  - symbol: K  # 112
    coordinates: [  0.811835298624454,  0.688164701375546,  0.625000000000000 ]
    mass: 39.098300
    reduced_to: 105
  - symbol: K  # 113
    coordinates: [  0.188164701375546,  0.311835298624454,  0.125000000000000 ]