360  
12   

1    
  0.0014285714285714  -0.0098974331861079   0.0000000000000000
  -0.0283787600    0.0415015400   -0.0012199900
  -0.0216141200    0.0061095000   -0.0011948200
  -0.0226529700    0.0079611200   -0.0015334400
  -0.0230918400    0.0077934400   -0.0017225400
  -0.0234991200    0.0082892300   -0.0016602600
  -0.0235620000    0.0087795800   -0.0014020700
  -0.0230370500    0.0087712600   -0.0012430700
  -0.0227238800    0.0081556400   -0.0014444500
  -0.0227170900    0.0076430800   -0.0017801700
  -0.0201498900    0.0059291000   -0.0031909200
  -0.0279912900    0.0063373900   -0.0033402700
  -0.0225523700    0.0101806300    0.0007425800
  -0.0233296000    0.0080970600   -0.0013624300
  -0.0236130700    0.0086528000   -0.0016201300
  -0.0243098900    0.0086310700   -0.0016952000
  -0.0247064400    0.0081439800   -0.0014742300
  -0.0240861700    0.0080467600   -0.0013407600
  -0.0235994700    0.0080023200   -0.0015526100
  -0.0236591400    0.0084353800   -0.0017929300
  -0.0242183800    0.0083227200   -0.0020250400
  -0.0244548300    0.0088735800   -0.0015544000
  -0.0240572500    0.0081905000   -0.0013797400
  -0.0235326900    0.0077518400   -0.0012975700
  -0.0235640900    0.0080277400   -0.0016816600
  -0.0243921700    0.0106145100    0.0001867100
  -0.0256210200    0.0073654500   -0.0020575900
  -0.0239610200    0.0078810900   -0.0012225600
  -0.0237227500    0.0075116700   -0.0014388100
  -0.0238119400    0.0079256800   -0.0016518900
  -0.0240595900    0.0087551900   -0.0017077300
  -0.0233976300    0.0089841100   -0.0014126800
  -0.0229891600    0.0088689400   -0.0012424000
  -0.0227618700    0.0081855300   -0.0014852200
  -0.0230873700    0.0079112800   -0.0017157400
  -0.0235150000    0.0083137500   -0.0017009900
  -0.0234529300    0.0089151900   -0.0014135800
  -0.0230471900    0.0087969000   -0.0012249500
  -0.0227521200    0.0082682100   -0.0014806800
  -0.0230996200    0.0078295800   -0.0017147600
  -0.0234208300    0.0083916800   -0.0016867100
  -0.0244888600    0.0083567300   -0.0014395500
  -0.0239915400    0.0081608700   -0.0013394700
  -0.0235708900    0.0081702000   -0.0015381100
  -0.0236290000    0.0085382000   -0.0017381100
  -0.0242212700    0.0086380700   -0.0018119600
  -0.0245340900    0.0083273500   -0.0014559600
  -0.0240804200    0.0080596500   -0.0013157900
  -0.0235818100    0.0079699300   -0.0014928100
  -0.0236597600    0.0084257800   -0.0016769700
  -0.0242254800    0.0086399300   -0.0017980600
  -0.0241358800    0.0090801800   -0.0014531700
  -0.0239376200    0.0082009900   -0.0013333300
  -0.0236857600    0.0076161100   -0.0014477400
  -0.0237861900    0.0080948400   -0.0016268800
  -0.0239708400    0.0088663100   -0.0016960600
  -0.0240944100    0.0091069900   -0.0014763200
  -0.0239719500    0.0081981100   -0.0013415400
  -0.0237338700    0.0074996200   -0.0014070000
  -0.0238142100    0.0078914600   -0.0015490700
  -0.0240280500    0.0087717500   -0.0016480900
  -0.0237800800    0.0072355300   -0.0028046500
  -0.0219496000    0.0106981000   -0.0009228400
  -0.0234818900    0.0092230500   -0.0012581000
  -0.0234327600    0.0085705400   -0.0012801600
  -0.0233049200    0.0076536200   -0.0014267200
  -0.0234394000    0.0078730900   -0.0016419000
  -0.0237347000    0.0085858500   -0.0016237300
  -0.0237443200    0.0091205900   -0.0014263600
  -0.0233947400    0.0085156600   -0.0013749600
  -0.0232606100    0.0074909000   -0.0016478900
  -0.0232006200    0.0079608400   -0.0019567000
  -0.0246032600    0.0070770700   -0.0019905700
  -0.0235579600    0.0088095100   -0.0014515700
  -0.0232905800    0.0087620900   -0.0013418100
  -0.0229533300    0.0085505500   -0.0014058600
  -0.0233274800    0.0081825700   -0.0016698600
  -0.0239005600    0.0078903500   -0.0017281000
  -0.0238521400    0.0085380500   -0.0015139800
  -0.0233528600    0.0085728500   -0.0013268400
  -0.0228529500    0.0083335000   -0.0014812300
  -0.0239635800    0.0082913600   -0.0017098200
  -0.0247301300    0.0085324700   -0.0017654000
  -0.0243533500    0.0085464500   -0.0014617000
  -0.0238606200    0.0076197000   -0.0012270500
  -0.0221854200    0.0063543900   -0.0017549700
  -0.0256132100    0.0107784700   -0.0012625300
  -0.0242535200    0.0054082200   -0.0013539400
  -0.0245291600    0.0080931500   -0.0013813100
  -0.0243492000    0.0078116600   -0.0012486100
  -0.0239492200    0.0077678600   -0.0014090000
  -0.0233839200    0.0080203800   -0.0016561100
  -0.0235590800    0.0088866100   -0.0016310600
  -0.0236466800    0.0091211600   -0.0016364100
  -0.0234246500    0.0085342300   -0.0013450300
  -0.0234699400    0.0075926300   -0.0015868800
  -0.0234326400    0.0078013500   -0.0016989000
  -0.0235979300    0.0087325700   -0.0016268300
  -0.0236531800    0.0091666200   -0.0014376400
  -0.0233643000    0.0085665600   -0.0013031400
  -0.0231641600    0.0077465100   -0.0012664400
  -0.0232722800    0.0082589300   -0.0017410100
  -0.0237659200    0.0083223800   -0.0016987100
  -0.0238735300    0.0088855000   -0.0014735700
  -0.0230301200    0.0085406600   -0.0016391400
  -0.0226818200    0.0085429900   -0.0012856200
  -0.0232314900    0.0080451000   -0.0020185900
  -0.0237310600    0.0081836000   -0.0017759800
  -0.0238205300    0.0086556500   -0.0015268600
  -0.0232987300    0.0084970100   -0.0012711700
  -0.0229197300    0.0079073300   -0.0009209200
  -0.0240395600    0.0083553400   -0.0016596400
  -0.0243029000    0.0088799000   -0.0017206800
  -0.0246525400    0.0085274700   -0.0014504400
  -0.0243923700    0.0079938100   -0.0011699900
  -0.0237930400    0.0078914100   -0.0013169400
  -0.0239070900    0.0085317600   -0.0016916600
  -0.0242928400    0.0087967600   -0.0018852300
  -0.0246112300    0.0084631800   -0.0014896400
  -0.0244477900    0.0078285500   -0.0012087400
  -0.0240457800    0.0076625200   -0.0013546800
  -0.0236542100    0.0084971400   -0.0014827200
  -0.0231848200    0.0084032500   -0.0013680800
  -0.0232559100    0.0085170200   -0.0016995700
  -0.0239592800    0.0083104800   -0.0017435800
  -0.0241985000    0.0084648900   -0.0014603200
  -0.0236994700    0.0083407200   -0.0014205700
  -0.0232137900    0.0081888300   -0.0014854000
  -0.0235156400    0.0083694600   -0.0018697500
  -0.0239601800    0.0082875200   -0.0018190300
  -0.0241863900    0.0084217500   -0.0015877800
  -0.0243299500    0.0078092400   -0.0013467500
  -0.0239669200    0.0077990400   -0.0014034300
  -0.0239283100    0.0082427100   -0.0015600900
  -0.0242241000    0.0090019200   -0.0016481600
  -0.0244676500    0.0088876700   -0.0014836700
  -0.0243613600    0.0078889200   -0.0012697600
  -0.0240764800    0.0076235500   -0.0013479300
  -0.0241760400    0.0080146500   -0.0016059500
  -0.0242449900    0.0088423900   -0.0016567000
  -0.0244266700    0.0088243800   -0.0015089900
  -0.0230305000    0.0088172300   -0.0013196200
  -0.0229710200    0.0077920900   -0.0015494500
  -0.0229051800    0.0079679600   -0.0016430600
  -0.0230287700    0.0084958900   -0.0016989300
  -0.0234515000    0.0092825100   -0.0013958000
  -0.0231068600    0.0089480300   -0.0012563100
  -0.0230896900    0.0079918000   -0.0013851900
  -0.0232124100    0.0073205500   -0.0015299800
  -0.0233620100    0.0084443000   -0.0015426000
  -0.0233871000    0.0090527700   -0.0013690700
  -0.0220455600    0.0103008900   -0.0006308600
  -0.0236058800    0.0076117500   -0.0027583000
  -0.0233282900    0.0082650000   -0.0018796200
  -0.0240174700    0.0082550100   -0.0018120200
  -0.0242799600    0.0084209000   -0.0014607700
  -0.0238716400    0.0081895600   -0.0014537200
  -0.0232278000    0.0082589800   -0.0014607400
  -0.0233776600    0.0084282500   -0.0018155500
  -0.0239807300    0.0083219400   -0.0018158300
  -0.0239763500    0.0085299500   -0.0014076300
  -0.0243000900    0.0044291300    0.0018920800
  -0.0256176500    0.0100489700   -0.0009699700
  -0.0222959500    0.0067113200   -0.0035720400
  -0.0239701600    0.0085858700   -0.0016586200
  -0.0245366200    0.0088515800   -0.0015176900
  -0.0245083200    0.0075827900   -0.0012742900
  -0.0240115100    0.0075588600   -0.0013675300
  -0.0240255200    0.0081291100   -0.0016124300
  -0.0241323400    0.0088261200   -0.0016901600
  -0.0240870000    0.0084913600   -0.0014879000
  -0.0234482800    0.0084876700   -0.0013102300
  -0.0230983600    0.0079258700   -0.0014928200
  -0.0232716400    0.0079598300   -0.0016412600
  -0.0230402100    0.0087550100   -0.0015782000
  -0.0231187700    0.0092057600   -0.0012656200
  -0.0238908000    0.0077142600   -0.0024860400
  -0.0230171000    0.0076965400   -0.0015423400
  -0.0231646400    0.0077416700   -0.0016881200
  -0.0233683500    0.0085263900   -0.0016210100
  -0.0234200200    0.0089342500   -0.0013900400
   0.0243386700   -0.0217923700    0.0112343200
   0.0295340600   -0.0155483200   -0.0047416300
   0.0231498900   -0.0080050600    0.0017402800
   0.0235218400   -0.0082120400    0.0015936100
   0.0237305700   -0.0083385100    0.0015366300
   0.0238567700   -0.0081892800    0.0015537100
   0.0237248800   -0.0083129900    0.0015301100
   0.0236975400   -0.0082689100    0.0015463000
   0.0236815000   -0.0082389700    0.0015060400
   0.0234650100   -0.0076436000    0.0014156400
   0.0239818300   -0.0077466700    0.0015549300
   0.0238720700   -0.0086543400    0.0015134100
   0.0234106500   -0.0084840400    0.0013678000
   0.0235368600   -0.0083995200    0.0015064800
   0.0237462900   -0.0084659700    0.0013975000
   0.0240816800   -0.0081177700    0.0017345400
   0.0237214000   -0.0083116000    0.0015215200
   0.0237055700   -0.0083323800    0.0015266300
   0.0237281500   -0.0082929900    0.0015362000
   0.0237582500   -0.0082143800    0.0015092500
   0.0237990500   -0.0082286400    0.0015221700
   0.0237478800   -0.0083952100    0.0015396700
   0.0236949800   -0.0084330900    0.0015183400
   0.0235930800   -0.0085043200    0.0015283200
   0.0234566300   -0.0085919800    0.0015331500
   0.0211562000   -0.0142471700   -0.0022366900
   0.0237120100   -0.0082030700    0.0014883600
   0.0236350900   -0.0083110200    0.0015204200
   0.0236575800   -0.0083675600    0.0015224000
   0.0237268300   -0.0083153700    0.0015338100
   0.0236583300   -0.0084109300    0.0015394500
   0.0236482700   -0.0084145700    0.0015072100
   0.0236679700   -0.0083643600    0.0015396300
   0.0236951300   -0.0083852000    0.0015159600
   0.0237373500   -0.0084080900    0.0015378000
   0.0237330500   -0.0083677200    0.0015407000
   0.0237543900   -0.0083018300    0.0015110700
   0.0237290900   -0.0083122100    0.0015640900
   0.0236819500   -0.0083195000    0.0015308200
   0.0236995400   -0.0084065800    0.0015517700
   0.0237472400   -0.0083777500    0.0015479300
   0.0236166800   -0.0084010900    0.0015184700
   0.0235875500   -0.0084226300    0.0015201800
   0.0236728700   -0.0084253000    0.0015352400
   0.0237634000   -0.0084099300    0.0014928700
   0.0237004200   -0.0084176200    0.0015350600
   0.0237065600   -0.0082676700    0.0014997000
   0.0237157600   -0.0081832900    0.0014247100
   0.0237167100   -0.0082800200    0.0014869100
   0.0237303300   -0.0083455000    0.0015151000
   0.0237013300   -0.0083411900    0.0015318300
   0.0237370500   -0.0083056600    0.0015853800
   0.0236242700   -0.0083973700    0.0015110100
   0.0236032100   -0.0083939400    0.0015551900
   0.0236789800   -0.0084375700    0.0015229600
   0.0236909500   -0.0084261700    0.0015019400
   0.0236713500   -0.0084536100    0.0015614100
   0.0236885700   -0.0082547000    0.0014705300
   0.0236593200   -0.0083539000    0.0014866100
   0.0237257300   -0.0083366300    0.0015100900
   0.0231739600   -0.0085755500    0.0024249500
   0.0237950100   -0.0078503300    0.0000997800
   0.0231963700   -0.0078872400    0.0015798600
   0.0235817500   -0.0082503800    0.0015060100
   0.0236562300   -0.0083164600    0.0015224400
   0.0237272300   -0.0083099700    0.0015389500
   0.0238489800   -0.0081127200    0.0015720200
   0.0237863100   -0.0083923900    0.0015072300
   0.0234737300   -0.0081896200    0.0014936300
   0.0231692200   -0.0076689100    0.0017282000
   0.0236915100   -0.0083577400    0.0016429900
   0.0240992700   -0.0086532100    0.0022108300
   0.0235727500   -0.0084992500    0.0013760200
   0.0236627800   -0.0083558600    0.0014551300
   0.0236549500   -0.0083752400    0.0014989100
   0.0237070500   -0.0083486100    0.0015224300
   0.0238203500   -0.0082624600    0.0015491900
   0.0237565400   -0.0083187400    0.0015143100
   0.0236846900   -0.0083366400    0.0015150300
   0.0236127600   -0.0082989200    0.0015717000
   0.0237701400   -0.0082922900    0.0015838000
   0.0242295100   -0.0077340000    0.0018575400
   0.0233195800   -0.0086218200    0.0011968500
   0.0235124300   -0.0084565500    0.0014571200
   0.0237591800   -0.0086146800    0.0011887100
   0.0237878900   -0.0084908500    0.0014737400
   0.0241671500   -0.0080183700    0.0017344100
   0.0237481900   -0.0082283800    0.0014650100
   0.0237128000   -0.0082959900    0.0015056600
   0.0237135100   -0.0083187000    0.0015356300
   0.0236290500   -0.0084493800    0.0015367300
   0.0236573600   -0.0083748900    0.0015498800
   0.0236630900   -0.0083088000    0.0015694500
   0.0236818300   -0.0082852700    0.0015295400
   0.0237651800   -0.0082712400    0.0015293900
   0.0237669000   -0.0082582000    0.0015005500
   0.0237291200   -0.0083629700    0.0015482700
   0.0237298900   -0.0084028400    0.0014989500
   0.0237012000   -0.0084211200    0.0014917400
   0.0236561800   -0.0084713700    0.0014935000
   0.0236671700   -0.0084508600    0.0016016200
   0.0236860700   -0.0084825700    0.0015261200
   0.0236681600   -0.0084437100    0.0014952800
   0.0236038700   -0.0083051300    0.0015849200
   0.0236170300   -0.0084110500    0.0015080300
   0.0237469200   -0.0082796100    0.0016335000
   0.0237005900   -0.0083475300    0.0015549600
   0.0237000000   -0.0083312600    0.0015121900
   0.0236479100   -0.0083022900    0.0014772700
   0.0236127200   -0.0082626200    0.0013864300
   0.0238376900   -0.0083308300    0.0014781800
   0.0237260800   -0.0084562000    0.0015532000
   0.0237643900   -0.0084427400    0.0014696000
   0.0236837900   -0.0084656400    0.0015200000
   0.0234948200   -0.0083687200    0.0014975100
   0.0236756500   -0.0084110900    0.0015381300
   0.0237554600   -0.0083408600    0.0016022600
   0.0237058500   -0.0083642500    0.0015421400
   0.0237247000   -0.0082488900    0.0014721200
   0.0237426900   -0.0080750400    0.0014147900
   0.0237050700   -0.0085539100    0.0015271000
   0.0237350300   -0.0084963700    0.0015923400
   0.0237273400   -0.0083565500    0.0014573600
   0.0237260100   -0.0083598500    0.0014865300
   0.0237058400   -0.0083612000    0.0014993400
   0.0237394100   -0.0082607600    0.0015437800
   0.0238391500   -0.0081823800    0.0015927300
   0.0237285800   -0.0083450800    0.0015111100
   0.0235832000   -0.0083558500    0.0015570800
   0.0236177800   -0.0083712900    0.0016192800
   0.0237580000   -0.0083109500    0.0017119200
   0.0233559400   -0.0085237700    0.0012361400
   0.0235835500   -0.0084541100    0.0014917400
   0.0237744400   -0.0084420300    0.0014521900
   0.0237162900   -0.0084126500    0.0014911200
   0.0236789600   -0.0083376200    0.0015077700
   0.0237706200   -0.0081913100    0.0014875400
   0.0237432200   -0.0082877800    0.0014835400
   0.0236866400   -0.0083196600    0.0015178700
   0.0236675900   -0.0083425400    0.0015635700
   0.0237759900   -0.0082474100    0.0016119500
   0.0238899200   -0.0081819500    0.0018399900
   0.0234592400   -0.0083302900    0.0015384400
   0.0231972500   -0.0080702900    0.0019340700
   0.0239017000   -0.0085156400    0.0012837600
   0.0236225600   -0.0085349100    0.0016885500
   0.0237032400   -0.0075488500    0.0008843300
   0.0236236200   -0.0082323400    0.0014625300
   0.0236809000   -0.0083720700    0.0015015500
   0.0236957600   -0.0083094600    0.0015399300
   0.0237287100   -0.0085806100    0.0015460300
   0.0236749300   -0.0081170800    0.0017933300
   0.0236663900   -0.0083154300    0.0015639300
   0.0237563500   -0.0083233700    0.0015475600
   0.0238665000   -0.0081702700    0.0015112800
   0.0237464300   -0.0083050700    0.0015386300
   0.0237342200   -0.0083538500    0.0015302300
   0.0237281400   -0.0083994300    0.0015034600
   0.0236630200   -0.0084017500    0.0014759200
   0.0234280100   -0.0088719300    0.0015375800
   0.0238858900   -0.0090477400    0.0017433700
   0.0243405600   -0.0088175400    0.0011432000
   0.0227222600   -0.0076624000    0.0020114800
   0.0233020400   -0.0083274600    0.0014852100
   0.0241303400   -0.0077492300    0.0018151600
   0.0237379100   -0.0082485100    0.0015750600
   0.0236855900   -0.0083493400    0.0015626300
   0.0236792600   -0.0083126900    0.0015096600
   0.0236368600   -0.0080335700    0.0014272500
   0.0236967700   -0.0065250400    0.0006861400
   0.0237210600   -0.0083996200    0.0015332800
   0.0237272000   -0.0084431000    0.0015356700
   0.0238142800   -0.0085303000    0.0014611300
   0.0234513100   -0.0084038600    0.0015439100
   0.0228320300   -0.0087569100    0.0010231400
   0.0239428700   -0.0079699400    0.0019357100
   0.0236812200   -0.0083139200    0.0015651700
   0.0237053600   -0.0083418900    0.0015625100
   0.0237467700   -0.0082203900    0.0014825000
   0.0238304300   -0.0079891800    0.0014705900

1    
 -0.0014285714285714   0.0098974331861079   0.0000000000000000
  -0.0184247200   -0.0245544400   -0.0009681000
  -0.0243768900    0.0115789700   -0.0012896100
  -0.0228851300    0.0085395200   -0.0014106400
  -0.0231118800    0.0079939000   -0.0017583000
  -0.0234046400    0.0084510300   -0.0016954700
  -0.0233183100    0.0091227100   -0.0014157100
  -0.0229781600    0.0089273300   -0.0012193900
  -0.0228164500    0.0083435500   -0.0014943200
  -0.0234849100    0.0081423800   -0.0017024500
  -0.0267682600    0.0108394800   -0.0001683200
  -0.0210430400    0.0103936300    0.0005036800
  -0.0255393200    0.0061198900   -0.0034224000
  -0.0238298200    0.0080540200   -0.0017058100
  -0.0236952000    0.0083986800   -0.0018748000
  -0.0241181000    0.0086291000   -0.0019124800
  -0.0243447400    0.0085706600   -0.0013701100
  -0.0240007100    0.0082523900   -0.0013470700
  -0.0235592400    0.0081511200   -0.0015119800
  -0.0236503500    0.0086178900   -0.0017011200
  -0.0242100900    0.0089381300   -0.0015818600
  -0.0237689800    0.0093457600   -0.0013533300
  -0.0238437300    0.0081900600   -0.0012863800
  -0.0239120700    0.0074526000   -0.0015873100
  -0.0240349300    0.0079732200   -0.0015839200
  -0.0236227900    0.0070957200   -0.0035279200
  -0.0226198800    0.0108535100   -0.0008626000
  -0.0239422400    0.0084975900   -0.0014451500
  -0.0237211300    0.0076947100   -0.0014494300
  -0.0237838200    0.0080735200   -0.0016151200
  -0.0239640200    0.0089608700   -0.0016347900
  -0.0234838300    0.0089165800   -0.0014001900
  -0.0230269400    0.0088296400   -0.0012137800
  -0.0227786300    0.0083130300   -0.0014477600
  -0.0231187900    0.0078765600   -0.0017540400
  -0.0233886600    0.0084261300   -0.0016495800
  -0.0234278500    0.0089859600   -0.0013987800
  -0.0229691400    0.0089010500   -0.0012338300
  -0.0227890100    0.0082311300   -0.0014560700
  -0.0231053000    0.0079557200   -0.0017593700
  -0.0234828900    0.0083473600   -0.0016598600
  -0.0245610000    0.0083546200   -0.0014025700
  -0.0240962200    0.0081389100   -0.0013452400
  -0.0235874800    0.0079823000   -0.0015226500
  -0.0236805800    0.0085154400   -0.0017475200
  -0.0242072700    0.0086225800   -0.0017878000
  -0.0245144600    0.0083851300   -0.0013850300
  -0.0240068200    0.0082392100   -0.0013674300
  -0.0235762600    0.0081822200   -0.0015691000
  -0.0236493700    0.0086279500   -0.0018138100
  -0.0242035700    0.0086194500   -0.0018047900
  -0.0240862900    0.0091396600   -0.0014453900
  -0.0239649500    0.0081777400   -0.0013293800
  -0.0237586500    0.0075891000   -0.0014340500
  -0.0238103400    0.0079047800   -0.0016326600
  -0.0240529700    0.0088483100   -0.0016390000
  -0.0241282700    0.0091132700   -0.0014207100
  -0.0239305700    0.0081829900   -0.0013192700
  -0.0237106100    0.0077061400   -0.0014732300
  -0.0237819100    0.0081074100   -0.0017137500
  -0.0239953000    0.0089435500   -0.0016910700
  -0.0229875300    0.0086178100   -0.0005339700
  -0.0252342800    0.0068802300   -0.0023424300
  -0.0238681300    0.0091302000   -0.0016153000
  -0.0234586900    0.0086066000   -0.0013830900
  -0.0232700300    0.0076865400   -0.0014777000
  -0.0233324400    0.0079742300   -0.0017081400
  -0.0234622000    0.0089833400   -0.0016423800
  -0.0236061600    0.0092336700   -0.0014485400
  -0.0234978100    0.0086616600   -0.0012868300
  -0.0233150000    0.0078497100   -0.0012596700
  -0.0231571400    0.0083338000   -0.0016441400
  -0.0228800800    0.0094294400   -0.0014974500
  -0.0240658500    0.0086112500   -0.0016071200
  -0.0234010200    0.0085079700   -0.0013373200
  -0.0227851000    0.0083040600   -0.0014339200
  -0.0230317100    0.0081115400   -0.0019284100
  -0.0235712400    0.0086173700   -0.0017603900
  -0.0237729800    0.0088829300   -0.0015469300
  -0.0233390800    0.0086988000   -0.0013542200
  -0.0228834600    0.0085205800   -0.0013629500
  -0.0239177000    0.0085330200   -0.0016523900
  -0.0238528000    0.0092382800   -0.0017110900
  -0.0248992100    0.0085168000   -0.0014751700
  -0.0249100200    0.0082512900   -0.0012348900
  -0.0257132900    0.0093215200   -0.0010650300
  -0.0222795900    0.0060500600   -0.0021021800
  -0.0243289300    0.0123313500   -0.0021190800
  -0.0247210500    0.0089666100   -0.0015570300
  -0.0244190000    0.0080580200   -0.0012105600
  -0.0239504100    0.0079036100   -0.0014146500
  -0.0233884100    0.0078271400   -0.0016870000
  -0.0236393900    0.0086798800   -0.0016309000
  -0.0237042500    0.0092337900   -0.0012305500
  -0.0234669800    0.0086447000   -0.0013119700
  -0.0231020000    0.0077493600   -0.0013143200
  -0.0233397600    0.0080471000   -0.0016431800
  -0.0236005300    0.0088367600   -0.0016360900
  -0.0236973300    0.0091871600   -0.0014313100
  -0.0235254000    0.0086100800   -0.0013588100
  -0.0234093300    0.0075913100   -0.0016343600
  -0.0230872500    0.0080343700   -0.0018582300
  -0.0237078600    0.0081855600   -0.0017874500
  -0.0237507700    0.0085322200   -0.0015813500
  -0.0236663700    0.0087319000   -0.0010324600
  -0.0230550800    0.0083102700   -0.0015510800
  -0.0231262800    0.0082513500   -0.0015809100
  -0.0237400600    0.0083255300   -0.0017173700
  -0.0238031600    0.0087650300   -0.0015288400
  -0.0233924900    0.0087736700   -0.0014079200
  -0.0228164800    0.0089429600   -0.0019156900
  -0.0238423300    0.0084697800   -0.0017013900
  -0.0242831200    0.0088885400   -0.0017533100
  -0.0245982800    0.0085332900   -0.0014864900
  -0.0243757400    0.0078747000   -0.0012877800
  -0.0241063000    0.0077799500   -0.0014987400
  -0.0239751700    0.0082916000   -0.0016661100
  -0.0242922000    0.0089732800   -0.0015865300
  -0.0246401200    0.0085999100   -0.0014473000
  -0.0243190000    0.0080409300   -0.0012493200
  -0.0238538500    0.0080093300   -0.0014635700
  -0.0237366200    0.0082895700   -0.0013439200
  -0.0231918000    0.0082116100   -0.0015679000
  -0.0234807400    0.0083672600   -0.0019478200
  -0.0240868700    0.0083608800   -0.0019086700
  -0.0242074900    0.0084918200   -0.0014700700
  -0.0236912500    0.0084460200   -0.0014095800
  -0.0231619800    0.0084272600   -0.0014549300
  -0.0232241600    0.0085135700   -0.0017822600
  -0.0240878300    0.0083847800   -0.0018301000
  -0.0242207800    0.0085346200   -0.0013424200
  -0.0243540400    0.0079797500   -0.0012189300
  -0.0240340900    0.0075582900   -0.0013275700
  -0.0241415600    0.0081472700   -0.0016603400
  -0.0242432100    0.0088787300   -0.0016884700
  -0.0244192100    0.0088936200   -0.0014981400
  -0.0243230000    0.0079021300   -0.0012941200
  -0.0239252100    0.0077323400   -0.0013805400
  -0.0238945000    0.0083750700   -0.0016164500
  -0.0242223000    0.0090377100   -0.0016824300
  -0.0244605600    0.0089569100   -0.0014742700
  -0.0230766700    0.0089513800   -0.0012487400
  -0.0229356500    0.0079841900   -0.0014353300
  -0.0234211300    0.0077130700   -0.0017025400
  -0.0236881300    0.0086829400   -0.0015109800
  -0.0233382600    0.0089276800   -0.0013166700
  -0.0230012500    0.0088202000   -0.0013072700
  -0.0228184400    0.0077824900   -0.0015943500
  -0.0231153500    0.0083565500   -0.0018135800
  -0.0233543200    0.0087352400   -0.0016706000
  -0.0233996500    0.0091568500   -0.0013480100
  -0.0253498900    0.0064800500   -0.0022010500
  -0.0227726800    0.0090018600   -0.0001808300
  -0.0234076800    0.0086233600   -0.0017703300
  -0.0240276700    0.0084168500   -0.0018387300
  -0.0241252300    0.0085365500   -0.0014741400
  -0.0235192200    0.0085986500   -0.0013793400
  -0.0231488900    0.0083556000   -0.0014848600
  -0.0233594500    0.0084570900   -0.0018371100
  -0.0240649500    0.0083475200   -0.0018356900
  -0.0244275000    0.0084258900   -0.0015245800
  -0.0243857000    0.0113491700   -0.0044292400
  -0.0223802900    0.0053048400   -0.0017697100
  -0.0257973900    0.0096834000    0.0003757100
  -0.0244972200    0.0092961500   -0.0016795200
  -0.0243465500    0.0089287800   -0.0014667700
  -0.0241765200    0.0082115900   -0.0012952800
  -0.0239904800    0.0077978700   -0.0013687800
  -0.0240455600    0.0082622600   -0.0016116700
  -0.0243341100    0.0090532800   -0.0016500000
  -0.0247981300    0.0092868200   -0.0014973000
  -0.0226621700    0.0092785200   -0.0012594100
  -0.0228107200    0.0078517700   -0.0014950600
  -0.0230546200    0.0077190800   -0.0017030400
  -0.0236816800    0.0084227000   -0.0016352000
  -0.0236694400    0.0090029200   -0.0014519600
  -0.0221918700    0.0100644600   -0.0000544700
  -0.0228905800    0.0080832300   -0.0014406200
  -0.0231619300    0.0079373200   -0.0016613000
  -0.0233481100    0.0086542700   -0.0015937800
  -0.0233666700    0.0092744800   -0.0013288600
   0.0230784200    0.0056582700   -0.0086576500
   0.0180809800   -0.0013199000    0.0076072500
   0.0242457400   -0.0087140900    0.0013339100
   0.0238933100   -0.0085528100    0.0014991800
   0.0236925400   -0.0084973600    0.0015400800
   0.0235592700   -0.0086253400    0.0014899000
   0.0236711000   -0.0084386700    0.0015056000
   0.0236947000   -0.0084430500    0.0015252200
   0.0237341600   -0.0085267100    0.0015859500
   0.0239534400   -0.0091873900    0.0016621600
   0.0234433500   -0.0090431900    0.0014764800
   0.0235143100   -0.0081294700    0.0015114000
   0.0239849300   -0.0082858500    0.0016769800
   0.0238974600   -0.0083523100    0.0015612500
   0.0236965100   -0.0083090600    0.0016539800
   0.0233378400   -0.0086833000    0.0013000300
   0.0236672700   -0.0084708500    0.0015030500
   0.0236858200   -0.0084372100    0.0015183200
   0.0237051100   -0.0084590600    0.0015306500
   0.0236887500   -0.0085589500    0.0015411600
   0.0235833200   -0.0085525100    0.0015059700
   0.0236073000   -0.0083536200    0.0014989000
   0.0236294000   -0.0083357200    0.0015429500
   0.0237442200   -0.0083069100    0.0015373000
   0.0239156900   -0.0082191700    0.0015138400
   0.0261635700   -0.0025615900    0.0052113300
   0.0236434100   -0.0085441200    0.0015503000
   0.0236896300   -0.0084572500    0.0015405900
   0.0236794400   -0.0084433900    0.0015422200
   0.0236433800   -0.0084948900    0.0015121800
   0.0237576600   -0.0084036800    0.0014996100
   0.0237474700   -0.0083371500    0.0015253200
   0.0237245700   -0.0083470400    0.0015283200
   0.0237216000   -0.0083807400    0.0015718400
   0.0236862000   -0.0084282600    0.0015342400
   0.0236829200   -0.0084469100    0.0014982000
   0.0236413200   -0.0084492900    0.0015212800
   0.0236639100   -0.0083990600    0.0015041600
   0.0237340200   -0.0084460800    0.0015571700
   0.0237234700   -0.0084297400    0.0015207500
   0.0236750700   -0.0084166300    0.0014800500
   0.0237720200   -0.0083817400    0.0015022000
   0.0238033900   -0.0083472700    0.0015213300
   0.0237610200   -0.0083269100    0.0015279800
   0.0236843700   -0.0083644900    0.0015541100
   0.0237226900   -0.0083768100    0.0014931200
   0.0236830000   -0.0085143800    0.0015205200
   0.0236753800   -0.0085849300    0.0016168400
   0.0237164800   -0.0084715800    0.0015766900
   0.0237163000   -0.0084293600    0.0015316500
   0.0236810400   -0.0084399900    0.0014929000
   0.0236188100   -0.0084430800    0.0014499800
   0.0237008100   -0.0083712600    0.0015466500
   0.0237340500   -0.0084173800    0.0015065900
   0.0236914800   -0.0083729500    0.0015195000
   0.0236917700   -0.0083549700    0.0015228100
   0.0236842100   -0.0082945500    0.0014730600
   0.0236365300   -0.0085131600    0.0015869700
   0.0236775200   -0.0084563400    0.0015747400
   0.0236441200   -0.0084736300    0.0015323100
   0.0241979900   -0.0081773200    0.0006342800
   0.0236247200   -0.0089973600    0.0029742400
   0.0242104000   -0.0088894200    0.0014423400
   0.0237946400   -0.0085277300    0.0015151100
   0.0237122400   -0.0084687900    0.0015210400
   0.0236655800   -0.0084673700    0.0015192500
   0.0235675500   -0.0086600400    0.0014717600
   0.0236230800   -0.0083903900    0.0015132900
   0.0239037000   -0.0085904000    0.0015271300
   0.0242052900   -0.0091237400    0.0013119000
   0.0236528700   -0.0084495900    0.0014323700
   0.0232752000   -0.0081716500    0.0008319200
   0.0238179300   -0.0082877000    0.0016500400
   0.0237006000   -0.0083799300    0.0015881300
   0.0236762500   -0.0083756600    0.0015708300
   0.0236386800   -0.0084557600    0.0015547900
   0.0235520200   -0.0085721700    0.0015072100
   0.0236365600   -0.0084704800    0.0015127100
   0.0236790400   -0.0084004300    0.0015273200
   0.0237184400   -0.0084530400    0.0014973900
   0.0236695900   -0.0084603500    0.0014932800