phonopy:
  version: "2.21.0"
  frequency_unit_conversion_factor: 15.633302
  symmetry_tolerance: 1.00000e-05
  configuration:
    band: "auto"
    dim: "5 5 0 -3 3 0 0 0 2"

physical_unit:
  atomic_mass: "AMU"
  length: "angstrom"
  force_constants: "eV/angstrom^2"

space_group:
  type: "R3m"
  number: 160
  Hall_symbol: "R 3 -2\""

primitive_matrix:
- [  0.666666666666667, -0.333333333333333, -0.333333333333333 ]
- [  0.333333333333333,  0.333333333333333, -0.666666666666667 ]
- [  0.333333333333333,  0.333333333333333,  0.333333333333333 ]

supercell_matrix:
- [   5,   5,   0 ]
- [  -3,   3,   0 ]
- [   0,   0,   2 ]

primitive_cell:
  lattice:
  - [     2.113831260108041,    -1.220421047044822,     3.631442677844575 ] # a
  - [     0.000000000000000,     2.440842094089645,     3.631442677844575 ] # b
  - [    -2.113831260108042,    -1.220421047044822,     3.631442677844575 ] # c
  points:
  - symbol: Ge # 1
    coordinates: [  0.995096713050393,  0.995096713050400,  0.995096713050393 ]
    mass: 72.640000
  - symbol: Te # 2
    coordinates: [  0.525903286949609,  0.525903286949597,  0.525903286949609 ]
    mass: 127.600000
  reciprocal_lattice: # without 2pi
  - [     0.236537328894665,    -0.136564890510730,     0.091790883928032 ] # a*
  - [    -0.000000000000000,     0.273129781021460,     0.091790883928032 ] # b*
  - [    -0.236537328894665,    -0.136564890510730,     0.091790883928032 ] # c*

unit_cell:
  lattice:
  - [     2.113831260108042,    -3.661263141134468,     0.000000000000000 ] # a
  - [     2.113831260108042,     3.661263141134468,    -0.000000000000000 ] # b
  - [    -0.000000000000000,    -0.000000000000000,    10.894328033533728 ] # c
  points:
  - symbol: Ge # 1
    coordinates: [  0.666666666666664,  0.333333333333336,  0.328430046383729 ]
    mass: 72.640000
    reduced_to: 1
  - symbol: Ge # 2
    coordinates: [  0.333333333333336,  0.666666666666664,  0.661763379717064 ]
    mass: 72.640000
    reduced_to: 1
  - symbol: Ge # 3
    coordinates: [ -0.000000000000000,  0.000000000000000,  0.995096713050393 ]
    mass: 72.640000
    reduced_to: 1
  - symbol: Te # 4
    coordinates: [  0.333333333333336,  0.666666666666664,  0.192569953616272 ]
    mass: 127.600000
    reduced_to: 4
  - symbol: Te # 5
    coordinates: [ -0.000000000000000, -0.000000000000000,  0.525903286949601 ]
    mass: 127.600000
    reduced_to: 4
  - symbol: Te # 6
    coordinates: [  0.666666666666664,  0.333333333333336,  0.859236620282936 ]
    mass: 127.600000
    reduced_to: 4

supercell:
  lattice:
  - [     4.227662520216082,   -29.290105129075748,     0.000000000000000 ] # a
  - [    16.910650080864333,    -7.322526282268939,     0.000000000000000 ] # b
  - [     0.000000000000000,     0.000000000000000,    21.788656067067457 ] # c
  points:
  - symbol: Ge # 1
    coordinates: [  0.011111111111110,  0.122222222222222,  0.164215023191864 ]
    mass: 72.640000
    reduced_to: 1
  - symbol: Ge # 2
    coordinates: [  0.111111111111110,  0.222222222222222,  0.164215023191864 ]
    mass: 72.640000
    reduced_to: 1
  - symbol: Ge # 3
    coordinates: [  0.211111111111110,  0.322222222222222,  0.164215023191864 ]
    mass: 72.640000
    reduced_to: 1
  - symbol: Ge # 4
    coordinates: [  0.311111111111111,  0.422222222222222,  0.164215023191864 ]
    mass: 72.640000
    reduced_to: 1
  - symbol: Ge # 5
    coordinates: [  0.411111111111110,  0.522222222222222,  0.164215023191864 ]
    mass: 72.640000
    reduced_to: 1
  - symbol: Ge # 6
    coordinates: [  0.511111111111111,  0.622222222222222,  0.164215023191864 ]
    mass: 72.640000
    reduced_to: 1
  - symbol: Ge # 7
    coordinates: [  0.611111111111111,  0.722222222222222,  0.164215023191864 ]
    mass: 72.640000
    reduced_to: 1
  - symbol: Ge # 8
    coordinates: [  0.711111111111111,  0.822222222222222,  0.164215023191864 ]
    mass: 72.640000
    reduced_to: 1
  - symbol: Ge # 9
    coordinates: [  0.811111111111111,  0.922222222222222,  0.164215023191864 ]
    mass: 72.640000
    reduced_to: 1
  - symbol: Ge # 10
    coordinates: [  0.911111111111111,  0.022222222222222,  0.164215023191864 ]
    mass: 72.640000
    reduced_to: 1
  - symbol: Ge # 11
    coordinates: [  0.844444444444444,  0.288888888888889,  0.164215023191864 ]
    mass: 72.640000
    reduced_to: 1
  - symbol: Ge # 12
    coordinates: [  0.944444444444444,  0.388888888888889,  0.164215023191864 ]
    mass: 72.640000
    reduced_to: 1
  - symbol: Ge # 13
    coordinates: [  0.044444444444444,  0.488888888888889,  0.164215023191864 ]
    mass: 72.640000
    reduced_to: 1
  - symbol: Ge # 14
    coordinates: [  0.144444444444444,  0.588888888888889,  0.164215023191864 ]
    mass: 72.640000
    reduced_to: 1
  - symbol: Ge # 15
    coordinates: [  0.244444444444444,  0.688888888888889,  0.164215023191864 ]
    mass: 72.640000
    reduced_to: 1
  - symbol: Ge # 16
    coordinates: [  0.344444444444444,  0.788888888888889,  0.164215023191864 ]
    mass: 72.640000
    reduced_to: 1
  - symbol: Ge # 17
    coordinates: [  0.444444444444444,  0.888888888888889,  0.164215023191864 ]
    mass: 72.640000
    reduced_to: 1
  - symbol: Ge # 18
    coordinates: [  0.544444444444444,  0.988888888888889,  0.164215023191864 ]
    mass: 72.640000
    reduced_to: 1
  - symbol: Ge # 19
    coordinates: [  0.644444444444444,  0.088888888888889,  0.164215023191864 ]
    mass: 72.640000
    reduced_to: 1
  - symbol: Ge # 20
    coordinates: [  0.744444444444444,  0.188888888888889,  0.164215023191864 ]
    mass: 72.640000
    reduced_to: 1
  - symbol: Ge # 21
    coordinates: [  0.677777777777777,  0.455555555555556,  0.164215023191864 ]
    mass: 72.640000
    reduced_to: 1
  - symbol: Ge # 22
    coordinates: [  0.777777777777777,  0.555555555555556,  0.164215023191864 ]
    mass: 72.640000
    reduced_to: 1
  - symbol: Ge # 23
    coordinates: [  0.877777777777777,  0.655555555555556,  0.164215023191864 ]
    mass: 72.640000
    reduced_to: 1
  - symbol: Ge # 24
    coordinates: [  0.977777777777777,  0.755555555555556,  0.164215023191864 ]
    mass: 72.640000
    reduced_to: 1
  - symbol: Ge # 25
    coordinates: [  0.077777777777777,  0.855555555555556,  0.164215023191864 ]
    mass: 72.640000
    reduced_to: 1
  - symbol: Ge # 26
    coordinates: [  0.177777777777777,  0.955555555555556,  0.164215023191864 ]
    mass: 72.640000
    reduced_to: 1
  - symbol: Ge # 27
    coordinates: [  0.277777777777777,  0.055555555555556,  0.164215023191864 ]
    mass: 72.640000
    reduced_to: 1
  - symbol: Ge # 28
    coordinates: [  0.377777777777777,  0.155555555555556,  0.164215023191864 ]
    mass: 72.640000
    reduced_to: 1
  - symbol: Ge # 29
    coordinates: [  0.477777777777777,  0.255555555555556,  0.164215023191864 ]
    mass: 72.640000
    reduced_to: 1
  - symbol: Ge # 30
    coordinates: [  0.577777777777777,  0.355555555555556,  0.164215023191864 ]
    mass: 72.640000
    reduced_to: 1
  - symbol: Ge # 31
    coordinates: [  0.011111111111110,  0.122222222222222,  0.664215023191864 ]
    mass: 72.640000
    reduced_to: 1
  - symbol: Ge # 32
    coordinates: [  0.111111111111110,  0.222222222222222,  0.664215023191864 ]
    mass: 72.640000
    reduced_to: 1
  - symbol: Ge # 33
    coordinates: [  0.211111111111110,  0.322222222222222,  0.664215023191864 ]
    mass: 72.640000
    reduced_to: 1
  - symbol: Ge # 34
    coordinates: [  0.311111111111111,  0.422222222222222,  0.664215023191864 ]
    mass: 72.640000
    reduced_to: 1
  - symbol: Ge # 35
    coordinates: [  0.411111111111110,  0.522222222222222,  0.664215023191864 ]
    mass: 72.640000
    reduced_to: 1
  - symbol: Ge # 36
    coordinates: [  0.511111111111111,  0.622222222222222,  0.664215023191864 ]
    mass: 72.640000
    reduced_to: 1
  - symbol: Ge # 37
    coordinates: [  0.611111111111111,  0.722222222222222,  0.664215023191864 ]
    mass: 72.640000
    reduced_to: 1
  - symbol: Ge # 38
    coordinates: [  0.711111111111111,  0.822222222222222,  0.664215023191864 ]
    mass: 72.640000
    reduced_to: 1
  - symbol: Ge # 39
    coordinates: [  0.811111111111111,  0.922222222222222,  0.664215023191864 ]
    mass: 72.640000
    reduced_to: 1
  - symbol: Ge # 40
    coordinates: [  0.911111111111111,  0.022222222222222,  0.664215023191864 ]
    mass: 72.640000
    reduced_to: 1
  - symbol: Ge # 41
    coordinates: [  0.844444444444444,  0.288888888888889,  0.664215023191864 ]
    mass: 72.640000
    reduced_to: 1
  - symbol: Ge # 42
    coordinates: [  0.944444444444444,  0.388888888888889,  0.664215023191864 ]
    mass: 72.640000
    reduced_to: 1
  - symbol: Ge # 43
    coordinates: [  0.044444444444444,  0.488888888888889,  0.664215023191864 ]
    mass: 72.640000
    reduced_to: 1
  - symbol: Ge # 44
    coordinates: [  0.144444444444444,  0.588888888888889,  0.664215023191864 ]
    mass: 72.640000
    reduced_to: 1
  - symbol: Ge # 45
    coordinates: [  0.244444444444444,  0.688888888888889,  0.664215023191864 ]
    mass: 72.640000
    reduced_to: 1
  - symbol: Ge # 46
    coordinates: [  0.344444444444444,  0.788888888888889,  0.664215023191864 ]
    mass: 72.640000
    reduced_to: 1
  - symbol: Ge # 47
    coordinates: [  0.444444444444444,  0.888888888888889,  0.664215023191864 ]
    mass: 72.640000
    reduced_to: 1
  - symbol: Ge # 48
    coordinates: [  0.544444444444444,  0.988888888888889,  0.664215023191864 ]
    mass: 72.640000
    reduced_to: 1
  - symbol: Ge # 49
    coordinates: [  0.644444444444444,  0.088888888888889,  0.664215023191864 ]
    mass: 72.640000
    reduced_to: 1
  - symbol: Ge # 50
    coordinates: [  0.744444444444444,  0.188888888888889,  0.664215023191864 ]
    mass: 72.640000
    reduced_to: 1
  - symbol: Ge # 51
    coordinates: [  0.677777777777777,  0.455555555555556,  0.664215023191864 ]
    mass: 72.640000
    reduced_to: 1
  - symbol: Ge # 52
    coordinates: [  0.777777777777777,  0.555555555555556,  0.664215023191864 ]
    mass: 72.640000
    reduced_to: 1
  - symbol: Ge # 53
    coordinates: [  0.877777777777777,  0.655555555555556,  0.664215023191864 ]
    mass: 72.640000
    reduced_to: 1
  - symbol: Ge # 54
    coordinates: [  0.977777777777777,  0.755555555555556,  0.664215023191864 ]
    mass: 72.640000
    reduced_to: 1
  - symbol: Ge # 55
    coordinates: [  0.077777777777777,  0.855555555555556,  0.664215023191864 ]
    mass: 72.640000
    reduced_to: 1
  - symbol: Ge # 56
    coordinates: [  0.177777777777777,  0.955555555555556,  0.664215023191864 ]
    mass: 72.640000
    reduced_to: 1
  - symbol: Ge # 57
    coordinates: [  0.277777777777777,  0.055555555555556,  0.664215023191864 ]
    mass: 72.640000
    reduced_to: 1
  - symbol: Ge # 58
    coordinates: [  0.377777777777777,  0.155555555555556,  0.664215023191864 ]
    mass: 72.640000
    reduced_to: 1
  - symbol: Ge # 59
    coordinates: [  0.477777777777777,  0.255555555555556,  0.664215023191864 ]
    mass: 72.640000
    reduced_to: 1
  - symbol: Ge # 60
    coordinates: [  0.577777777777777,  0.355555555555556,  0.664215023191864 ]
    mass: 72.640000
    reduced_to: 1
  - symbol: Ge # 61
    coordinates: [  0.922222222222223,  0.144444444444444,  0.330881689858532 ]
    mass: 72.640000
    reduced_to: 1
  - symbol: Ge # 62
    coordinates: [  0.022222222222223,  0.244444444444444,  0.330881689858532 ]
    mass: 72.640000
    reduced_to: 1
  - symbol: Ge # 63
    coordinates: [  0.122222222222223,  0.344444444444444,  0.330881689858532 ]
    mass: 72.640000
    reduced_to: 1
  - symbol: Ge # 64
    coordinates: [  0.222222222222223,  0.444444444444444,  0.330881689858532 ]
    mass: 72.640000
    reduced_to: 1
  - symbol: Ge # 65
    coordinates: [  0.322222222222223,  0.544444444444444,  0.330881689858532 ]
    mass: 72.640000
    reduced_to: 1
  - symbol: Ge # 66
    coordinates: [  0.422222222222223,  0.644444444444444,  0.330881689858532 ]
    mass: 72.640000
    reduced_to: 1
  - symbol: Ge # 67
    coordinates: [  0.522222222222223,  0.744444444444444,  0.330881689858532 ]
    mass: 72.640000
    reduced_to: 1
  - symbol: Ge # 68
    coordinates: [  0.622222222222223,  0.844444444444444,  0.330881689858532 ]
    mass: 72.640000
    reduced_to: 1
  - symbol: Ge # 69
    coordinates: [  0.722222222222223,  0.944444444444444,  0.330881689858532 ]
    mass: 72.640000
    reduced_to: 1
  - symbol: Ge # 70
    coordinates: [  0.822222222222223,  0.044444444444444,  0.330881689858532 ]
    mass: 72.640000
    reduced_to: 1
  - symbol: Ge # 71
    coordinates: [  0.755555555555556,  0.311111111111111,  0.330881689858532 ]
    mass: 72.640000
    reduced_to: 1
  - symbol: Ge # 72
    coordinates: [  0.855555555555556,  0.411111111111111,  0.330881689858532 ]
    mass: 72.640000
    reduced_to: 1
  - symbol: Ge # 73
    coordinates: [  0.955555555555556,  0.511111111111111,  0.330881689858532 ]
    mass: 72.640000
    reduced_to: 1
  - symbol: Ge # 74
    coordinates: [  0.055555555555556,  0.611111111111111,  0.330881689858532 ]
    mass: 72.640000
    reduced_to: 1
  - symbol: Ge # 75
    coordinates: [  0.155555555555556,  0.711111111111111,  0.330881689858532 ]
    mass: 72.640000
    reduced_to: 1
  - symbol: Ge # 76
    coordinates: [  0.255555555555556,  0.811111111111111,  0.330881689858532 ]
    mass: 72.640000
    reduced_to: 1
  - symbol: Ge # 77
    coordinates: [  0.355555555555556,  0.911111111111111,  0.330881689858532 ]
    mass: 72.640000
    reduced_to: 1
  - symbol: Ge # 78
    coordinates: [  0.455555555555556,  0.011111111111111,  0.330881689858532 ]
    mass: 72.640000
    reduced_to: 1
  - symbol: Ge # 79
    coordinates: [  0.555555555555556,  0.111111111111111,  0.330881689858532 ]
    mass: 72.640000
    reduced_to: 1
  - symbol: Ge # 80
    coordinates: [  0.655555555555556,  0.211111111111111,  0.330881689858532 ]
    mass: 72.640000
    reduced_to: 1
  - symbol: Ge # 81
    coordinates: [  0.588888888888889,  0.477777777777778,  0.330881689858532 ]
    mass: 72.640000
    reduced_to: 1
  - symbol: Ge # 82
    coordinates: [  0.688888888888890,  0.577777777777778,  0.330881689858532 ]
    mass: 72.640000
    reduced_to: 1
  - symbol: Ge # 83
    coordinates: [  0.788888888888890,  0.677777777777778,  0.330881689858532 ]
    mass: 72.640000
    reduced_to: 1
  - symbol: Ge # 84
    coordinates: [  0.888888888888890,  0.777777777777778,  0.330881689858532 ]
    mass: 72.640000
    reduced_to: 1
  - symbol: Ge # 85
    coordinates: [  0.988888888888890,  0.877777777777778,  0.330881689858532 ]
    mass: 72.640000
    reduced_to: 1
  - symbol: Ge # 86
    coordinates: [  0.088888888888890,  0.977777777777778,  0.330881689858532 ]
    mass: 72.640000
    reduced_to: 1
  - symbol: Ge # 87
    coordinates: [  0.188888888888890,  0.077777777777778,  0.330881689858532 ]
    mass: 72.640000
    reduced_to: 1
  - symbol: Ge # 88
    coordinates: [  0.288888888888890,  0.177777777777778,  0.330881689858532 ]
    mass: 72.640000
    reduced_to: 1
  - symbol: Ge # 89
    coordinates: [  0.388888888888890,  0.277777777777778,  0.330881689858532 ]
    mass: 72.640000
    reduced_to: 1
  - symbol: Ge # 90
    coordinates: [  0.488888888888890,  0.377777777777778,  0.330881689858532 ]
    mass: 72.640000
    reduced_to: 1
  - symbol: Ge # 91
    coordinates: [  0.922222222222223,  0.144444444444444,  0.830881689858532 ]
    mass: 72.640000
    reduced_to: 1
  - symbol: Ge # 92
    coordinates: [  0.022222222222223,  0.244444444444444,  0.830881689858532 ]
    mass: 72.640000
    reduced_to: 1
  - symbol: Ge # 93
    coordinates: [  0.122222222222223,  0.344444444444444,  0.830881689858532 ]
    mass: 72.640000
    reduced_to: 1
  - symbol: Ge # 94
    coordinates: [  0.222222222222223,  0.444444444444444,  0.830881689858532 ]
    mass: 72.640000
    reduced_to: 1
  - symbol: Ge # 95
    coordinates: [  0.322222222222223,  0.544444444444444,  0.830881689858532 ]
    mass: 72.640000
    reduced_to: 1
  - symbol: Ge # 96
    coordinates: [  0.422222222222223,  0.644444444444444,  0.830881689858532 ]
    mass: 72.640000
    reduced_to: 1
  - symbol: Ge # 97
    coordinates: [  0.522222222222223,  0.744444444444444,  0.830881689858532 ]
    mass: 72.640000
    reduced_to: 1
  - symbol: Ge # 98
    coordinates: [  0.622222222222223,  0.844444444444444,  0.830881689858532 ]
    mass: 72.640000
    reduced_to: 1
  - symbol: Ge # 99
    coordinates: [  0.722222222222223,  0.944444444444444,  0.830881689858532 ]
    mass: 72.640000
    reduced_to: 1
  - symbol: Ge # 100
    coordinates: [  0.822222222222223,  0.044444444444444,  0.830881689858532 ]
    mass: 72.640000
    reduced_to: 1
  - symbol: Ge # 101
    coordinates: [  0.755555555555556,  0.311111111111111,  0.830881689858532 ]
    mass: 72.640000
    reduced_to: 1
  - symbol: Ge # 102
    coordinates: [  0.855555555555556,  0.411111111111111,  0.830881689858532 ]
    mass: 72.640000
    reduced_to: 1
  - symbol: Ge # 103
    coordinates: [  0.955555555555556,  0.511111111111111,  0.830881689858532 ]
    mass: 72.640000
    reduced_to: 1
  - symbol: Ge # 104
    coordinates: [  0.055555555555556,  0.611111111111111,  0.830881689858532 ]
    mass: 72.640000
    reduced_to: 1
  - symbol: Ge # 105
    coordinates: [  0.155555555555556,  0.711111111111111,  0.830881689858532 ]
    mass: 72.640000
    reduced_to: 1
  - symbol: Ge # 106
    coordinates: [  0.255555555555556,  0.811111111111111,  0.830881689858532 ]
    mass: 72.640000
    reduced_to: 1
  - symbol: Ge # 107
    coordinates: [  0.355555555555556,  0.911111111111111,  0.830881689858532 ]
    mass: 72.640000
    reduced_to: 1
  - symbol: Ge # 108
    coordinates: [  0.455555555555556,  0.011111111111111,  0.830881689858532 ]
    mass: 72.640000
    reduced_to: 1
  - symbol: Ge # 109
    coordinates: [  0.555555555555556,  0.111111111111111,  0.830881689858532 ]
    mass: 72.640000
    reduced_to: 1
  - symbol: Ge # 110
    coordinates: [  0.655555555555556,  0.211111111111111,  0.830881689858532 ]
    mass: 72.640000
    reduced_to: 1
  - symbol: Ge # 111
    coordinates: [  0.588888888888889,  0.477777777777778,  0.830881689858532 ]
    mass: 72.640000
    reduced_to: 1
  - symbol: Ge # 112
    coordinates: [  0.688888888888890,  0.577777777777778,  0.830881689858532 ]
    mass: 72.640000
    reduced_to: 1
  - symbol: Ge # 113
    coordinates: [  0.788888888888890,  0.677777777777778,  0.830881689858532 ]
    mass: 72.640000
    reduced_to: 1
  - symbol: Ge # 114
    coordinates: [  0.888888888888890,  0.777777777777778,  0.830881689858532 ]
    mass: 72.640000
    reduced_to: 1
  - symbol: Ge # 115
    coordinates: [  0.988888888888890,  0.877777777777778,  0.830881689858532 ]
    mass: 72.640000
    reduced_to: 1
  - symbol: Ge # 116
    coordinates: [  0.088888888888890,  0.977777777777778,  0.830881689858532 ]
    mass: 72.640000
    reduced_to: 1
  - symbol: Ge # 117
    coordinates: [  0.188888888888890,  0.077777777777778,  0.830881689858532 ]
    mass: 72.640000
    reduced_to: 1
  - symbol: Ge # 118
    coordinates: [  0.288888888888890,  0.177777777777778,  0.830881689858532 ]
    mass: 72.640000
    reduced_to: 1
  - symbol: Ge # 119
    coordinates: [  0.388888888888890,  0.277777777777778,  0.830881689858532 ]
    mass: 72.640000
    reduced_to: 1
  - symbol: Ge # 120
    coordinates: [  0.488888888888890,  0.377777777777778,  0.830881689858532 ]
    mass: 72.640000
    reduced_to: 1
  - symbol: Ge # 121
    coordinates: [  0.000000000000000,  0.000000000000000,  0.497548356525197 ]
    mass: 72.640000
    reduced_to: 1
  - symbol: Ge # 122
    coordinates: [  0.100000000000000,  0.100000000000000,  0.497548356525197 ]
    mass: 72.640000
    reduced_to: 1
  - symbol: Ge # 123
    coordinates: [  0.200000000000000,  0.200000000000000,  0.497548356525197 ]
    mass: 72.640000
    reduced_to: 1
  - symbol: Ge # 124
    coordinates: [  0.300000000000000,  0.300000000000000,  0.497548356525197 ]
    mass: 72.640000
    reduced_to: 1
  - symbol: Ge # 125
    coordinates: [  0.400000000000000,  0.400000000000000,  0.497548356525197 ]
    mass: 72.640000
    reduced_to: 1
  - symbol: Ge # 126
    coordinates: [  0.500000000000000,  0.500000000000000,  0.497548356525197 ]
    mass: 72.640000
    reduced_to: 1
  - symbol: Ge # 127
    coordinates: [  0.600000000000000,  0.600000000000000,  0.497548356525197 ]
    mass: 72.640000
    reduced_to: 1
  - symbol: Ge # 128
    coordinates: [  0.700000000000000,  0.700000000000000,  0.497548356525197 ]
    mass: 72.640000
    reduced_to: 1
  - symbol: Ge # 129
    coordinates: [  0.800000000000000,  0.800000000000000,  0.497548356525197 ]
    mass: 72.640000
    reduced_to: 1
  - symbol: Ge # 130
    coordinates: [  0.900000000000000,  0.900000000000000,  0.497548356525197 ]
    mass: 72.640000
    reduced_to: 1
  - symbol: Ge # 131
    coordinates: [  0.833333333333333,  0.166666666666667,  0.497548356525197 ]
    mass: 72.640000
    reduced_to: 1
  - symbol: Ge # 132
    coordinates: [  0.933333333333333,  0.266666666666667,  0.497548356525197 ]
    mass: 72.640000
    reduced_to: 1
  - symbol: Ge # 133
    coordinates: [  0.033333333333333,  0.366666666666667,  0.497548356525197 ]
    mass: 72.640000
    reduced_to: 1
  - symbol: Ge # 134
    coordinates: [  0.133333333333333,  0.466666666666667,  0.497548356525197 ]
    mass: 72.640000
    reduced_to: 1
  - symbol: Ge # 135
    coordinates: [  0.233333333333333,  0.566666666666667,  0.497548356525197 ]
    mass: 72.640000
    reduced_to: 1
  - symbol: Ge # 136
    coordinates: [  0.333333333333333,  0.666666666666667,  0.497548356525197 ]
    mass: 72.640000
    reduced_to: 1
  - symbol: Ge # 137
    coordinates: [  0.433333333333333,  0.766666666666667,  0.497548356525197 ]
    mass: 72.640000
    reduced_to: 1
  - symbol: Ge # 138
    coordinates: [  0.533333333333333,  0.866666666666667,  0.497548356525197 ]
    mass: 72.640000
    reduced_to: 1
  - symbol: Ge # 139
    coordinates: [  0.633333333333333,  0.966666666666667,  0.497548356525197 ]
    mass: 72.640000
    reduced_to: 1
  - symbol: Ge # 140
    coordinates: [  0.733333333333333,  0.066666666666667,  0.497548356525197 ]
    mass: 72.640000
    reduced_to: 1
  - symbol: Ge # 141
    coordinates: [  0.666666666666667,  0.333333333333333,  0.497548356525197 ]
    mass: 72.640000
    reduced_to: 1
  - symbol: Ge # 142
    coordinates: [  0.766666666666667,  0.433333333333333,  0.497548356525197 ]
    mass: 72.640000
    reduced_to: 1
  - symbol: Ge # 143
    coordinates: [  0.866666666666667,  0.533333333333333,  0.497548356525197 ]
    mass: 72.640000
    reduced_to: 1
  - symbol: Ge # 144
    coordinates: [  0.966666666666667,  0.633333333333333,  0.497548356525197 ]
    mass: 72.640000
    reduced_to: 1
  - symbol: Ge # 145
    coordinates: [  0.066666666666667,  0.733333333333333,  0.497548356525197 ]
    mass: 72.640000
    reduced_to: 1
  - symbol: Ge # 146
    coordinates: [  0.166666666666667,  0.833333333333333,  0.497548356525197 ]
    mass: 72.640000
    reduced_to: 1
  - symbol: Ge # 147
    coordinates: [  0.266666666666667,  0.933333333333333,  0.497548356525197 ]
    mass: 72.640000
    reduced_to: 1
  - symbol: Ge # 148
    coordinates: [  0.366666666666667,  0.033333333333333,  0.497548356525197 ]
    mass: 72.640000
    reduced_to: 1
  - symbol: Ge # 149
    coordinates: [  0.466666666666667,  0.133333333333333,  0.497548356525197 ]
    mass: 72.640000
    reduced_to: 1
  - symbol: Ge # 150
    coordinates: [  0.566666666666667,  0.233333333333333,  0.497548356525197 ]
    mass: 72.640000
    reduced_to: 1
  - symbol: Ge # 151
    coordinates: [  0.000000000000000,  0.000000000000000,  0.997548356525197 ]
    mass: 72.640000
    reduced_to: 1
  - symbol: Ge # 152
    coordinates: [  0.100000000000000,  0.100000000000000,  0.997548356525197 ]
    mass: 72.640000
    reduced_to: 1
  - symbol: Ge # 153
    coordinates: [  0.200000000000000,  0.200000000000000,  0.997548356525197 ]
    mass: 72.640000
    reduced_to: 1
  - symbol: Ge # 154
    coordinates: [  0.300000000000000,  0.300000000000000,  0.997548356525197 ]
    mass: 72.640000
    reduced_to: 1
  - symbol: Ge # 155
    coordinates: [  0.400000000000000,  0.400000000000000,  0.997548356525197 ]
    mass: 72.640000
    reduced_to: 1
  - symbol: Ge # 156
    coordinates: [  0.500000000000000,  0.500000000000000,  0.997548356525197 ]
    mass: 72.640000
    reduced_to: 1
  - symbol: Ge # 157
    coordinates: [  0.600000000000000,  0.600000000000000,  0.997548356525197 ]
    mass: 72.640000
    reduced_to: 1
  - symbol: Ge # 158
    coordinates: [  0.700000000000000,  0.700000000000000,  0.997548356525197 ]
    mass: 72.640000
    reduced_to: 1
  - symbol: Ge # 159
    coordinates: [  0.800000000000000,  0.800000000000000,  0.997548356525197 ]
    mass: 72.640000
    reduced_to: 1
  - symbol: Ge # 160
    coordinates: [  0.900000000000000,  0.900000000000000,  0.997548356525197 ]
    mass: 72.640000
    reduced_to: 1
  - symbol: Ge # 161
    coordinates: [  0.833333333333333,  0.166666666666667,  0.997548356525197 ]
    mass: 72.640000
    reduced_to: 1
  - symbol: Ge # 162
    coordinates: [  0.933333333333333,  0.266666666666667,  0.997548356525197 ]
    mass: 72.640000
    reduced_to: 1
  - symbol: Ge # 163
    coordinates: [  0.033333333333333,  0.366666666666667,  0.997548356525197 ]
    mass: 72.640000
    reduced_to: 1
  - symbol: Ge # 164
    coordinates: [  0.133333333333333,  0.466666666666667,  0.997548356525197 ]
    mass: 72.640000
    reduced_to: 1
  - symbol: Ge # 165
    coordinates: [  0.233333333333333,  0.566666666666667,  0.997548356525197 ]
    mass: 72.640000
    reduced_to: 1
  - symbol: Ge # 166
    coordinates: [  0.333333333333333,  0.666666666666667,  0.997548356525197 ]
    mass: 72.640000
    reduced_to: 1
  - symbol: Ge # 167
    coordinates: [  0.433333333333333,  0.766666666666667,  0.997548356525197 ]
    mass: 72.640000
    reduced_to: 1
  - symbol: Ge # 168
    coordinates: [  0.533333333333333,  0.866666666666667,  0.997548356525197 ]
    mass: 72.640000
    reduced_to: 1
  - symbol: Ge # 169
    coordinates: [  0.633333333333333,  0.966666666666667,  0.997548356525197 ]
    mass: 72.640000
    reduced_to: 1
  - symbol: Ge # 170
    coordinates: [  0.733333333333333,  0.066666666666667,  0.997548356525197 ]
    mass: 72.640000
    reduced_to: 1
  - symbol: Ge # 171
    coordinates: [  0.666666666666667,  0.333333333333333,  0.997548356525197 ]
    mass: 72.640000
    reduced_to: 1
  - symbol: Ge # 172
    coordinates: [  0.766666666666667,  0.433333333333333,  0.997548356525197 ]
    mass: 72.640000
    reduced_to: 1
  - symbol: Ge # 173
    coordinates: [  0.866666666666667,  0.533333333333333,  0.997548356525197 ]
    mass: 72.640000
    reduced_to: 1
  - symbol: Ge # 174
    coordinates: [  0.966666666666667,  0.633333333333333,  0.997548356525197 ]
    mass: 72.640000
    reduced_to: 1
  - symbol: Ge # 175
    coordinates: [  0.066666666666667,  0.733333333333333,  0.997548356525197 ]
    mass: 72.640000
    reduced_to: 1
  - symbol: Ge # 176
    coordinates: [  0.166666666666667,  0.833333333333333,  0.997548356525197 ]
    mass: 72.640000
    reduced_to: 1
  - symbol: Ge # 177
    coordinates: [  0.266666666666667,  0.933333333333333,  0.997548356525197 ]
    mass: 72.640000
    reduced_to: 1
  - symbol: Ge # 178
    coordinates: [  0.366666666666667,  0.033333333333333,  0.997548356525197 ]
    mass: 72.640000
    reduced_to: 1
  - symbol: Ge # 179
    coordinates: [  0.466666666666667,  0.133333333333333,  0.997548356525197 ]
    mass: 72.640000
    reduced_to: 1
  - symbol: Ge # 180
    coordinates: [  0.566666666666667,  0.233333333333333,  0.997548356525197 ]
    mass: 72.640000
    reduced_to: 1
  - symbol: Te # 181
    coordinates: [  0.922222222222223,  0.144444444444444,  0.096284976808136 ]
    mass: 127.600000
    reduced_to: 181
  - symbol: Te # 182
    coordinates: [  0.022222222222223,  0.244444444444444,  0.096284976808136 ]
    mass: 127.600000
    reduced_to: 181
  - symbol: Te # 183
    coordinates: [  0.122222222222223,  0.344444444444444,  0.096284976808136 ]
    mass: 127.600000
    reduced_to: 181
  - symbol: Te # 184
    coordinates: [  0.222222222222223,  0.444444444444444,  0.096284976808136 ]
    mass: 127.600000
    reduced_to: 181
  - symbol: Te # 185
    coordinates: [  0.322222222222223,  0.544444444444444,  0.096284976808136 ]
    mass: 127.600000
    reduced_to: 181
  - symbol: Te # 186
    coordinates: [  0.422222222222223,  0.644444444444444,  0.096284976808136 ]
    mass: 127.600000
    reduced_to: 181
  - symbol: Te # 187
    coordinates: [  0.522222222222223,  0.744444444444444,  0.096284976808136 ]
    mass: 127.600000
    reduced_to: 181
  - symbol: Te # 188
    coordinates: [  0.622222222222223,  0.844444444444444,  0.096284976808136 ]
    mass: 127.600000
    reduced_to: 181
  - symbol: Te # 189
    coordinates: [  0.722222222222223,  0.944444444444444,  0.096284976808136 ]
    mass: 127.600000
    reduced_to: 181
  - symbol: Te # 190
    coordinates: [  0.822222222222223,  0.044444444444444,  0.096284976808136 ]
    mass: 127.600000
    reduced_to: 181
  - symbol: Te # 191
    coordinates: [  0.755555555555556,  0.311111111111111,  0.096284976808136 ]
    mass: 127.600000
    reduced_to: 181
  - symbol: Te # 192
    coordinates: [  0.855555555555556,  0.411111111111111,  0.096284976808136 ]
    mass: 127.600000
    reduced_to: 181
  - symbol: Te # 193
    coordinates: [  0.955555555555556,  0.511111111111111,  0.096284976808136 ]
    mass: 127.600000
    reduced_to: 181
  - symbol: Te # 194
    coordinates: [  0.055555555555556,  0.611111111111111,  0.096284976808136 ]
    mass: 127.600000
    reduced_to: 181
  - symbol: Te # 195
    coordinates: [  0.155555555555556,  0.711111111111111,  0.096284976808136 ]
    mass: 127.600000
    reduced_to: 181
  - symbol: Te # 196
    coordinates: [  0.255555555555556,  0.811111111111111,  0.096284976808136 ]
    mass: 127.600000
    reduced_to: 181
  - symbol: Te # 197