phonopy:
  version: "2.27.0"
  frequency_unit_conversion_factor: 15.633302
  symmetry_tolerance: 1.00000e-03

space_group:
  type: "C222_1"
  number: 20
  Hall_symbol: "C 2c 2"

primitive_matrix:
- [  0.500000000000000,  0.500000000000000, -0.000000000000000 ]
- [ -0.500000000000000,  0.500000000000000,  0.000000000000000 ]
- [  0.000000000000000,  0.000000000000000,  1.000000000000000 ]

supercell_matrix:
- [   3,   0,   0 ]
- [   0,   2,   0 ]
- [   0,   0,   2 ]

primitive_cell:
  lattice:
  - [     4.485575771664017,    -7.118507420330860,     0.000000000000012 ] # a
  - [     4.485575771664017,     7.118507420330860,    -0.000000000000011 ] # b
  - [    -0.000000000000001,    -0.000000000000001,    11.586370186211356 ] # c
  points:
  - symbol: Na # 1
    coordinates: [  0.074749464920614,  0.925250535079385,  0.249999999999996 ]
    mass: 22.989769
  - symbol: Na # 2
    coordinates: [  0.925250535079384,  0.074749464920615,  0.749999999999995 ]
    mass: 22.989769
  - symbol: Na # 3
    coordinates: [  0.604926451369507,  0.604926451369508,  0.499999999999996 ]
    mass: 22.989769
  - symbol: Na # 4
    coordinates: [  0.395073548630493,  0.395073548630494,  0.999999999999996 ]
    mass: 22.989769
  - symbol: Na # 5
    coordinates: [  0.489934612345596,  0.903864237663324,  0.671325794712309 ]
    mass: 22.989769
  - symbol: Na # 6
    coordinates: [  0.510065387654403,  0.096135762336677,  0.171325794712309 ]
    mass: 22.989769
  - symbol: Na # 7
    coordinates: [  0.903864237663323,  0.489934612345597,  0.328674205287682 ]
    mass: 22.989769
  - symbol: Na # 8
    coordinates: [  0.096135762336676,  0.510065387654404,  0.828674205287683 ]
    mass: 22.989769
  - symbol: Na # 9
    coordinates: [  0.413248472045562,  0.165418767933622,  0.459132372284034 ]
    mass: 22.989769
  - symbol: Na # 10
    coordinates: [  0.586751527954436,  0.834581232066379,  0.959132372284033 ]
    mass: 22.989769
  - symbol: Na # 11
    coordinates: [  0.165418767933621,  0.413248472045563,  0.540867627715957 ]
    mass: 22.989769
  - symbol: Na # 12
    coordinates: [  0.834581232066378,  0.586751527954437,  0.040867627715958 ]
    mass: 22.989769
  - symbol: Na # 13
    coordinates: [  0.794192880472921,  0.052346181442916,  0.415930075298443 ]
    mass: 22.989769
  - symbol: Na # 14
    coordinates: [  0.205807119527076,  0.947653818557085,  0.915930075298443 ]
    mass: 22.989769
  - symbol: Na # 15
    coordinates: [  0.052346181442915,  0.794192880472922,  0.584069924701548 ]
    mass: 22.989769
  - symbol: Na # 16
    coordinates: [  0.947653818557084,  0.205807119527077,  0.084069924701548 ]
    mass: 22.989769
  - symbol: Tl # 17
    coordinates: [  0.341497404328229,  0.772015527441647,  0.385074053659452 ]
    mass: 204.383300
  - symbol: Tl # 18
    coordinates: [  0.658502595671770,  0.227984472558353,  0.885074053659452 ]
    mass: 204.383300
  - symbol: Tl # 19
    coordinates: [  0.772015527441646,  0.341497404328230,  0.614925946340539 ]
    mass: 204.383300
  - symbol: Tl # 20
    coordinates: [  0.227984472558352,  0.658502595671771,  0.114925946340539 ]
    mass: 204.383300
  - symbol: Tl # 21
    coordinates: [  0.725045943445709,  0.635349684648501,  0.776509194643275 ]
    mass: 204.383300
  - symbol: Tl # 22
    coordinates: [  0.274954056554291,  0.364650315351501,  0.276509194643275 ]
    mass: 204.383300
  - symbol: Tl # 23
    coordinates: [  0.635349684648500,  0.725045943445710,  0.223490805356716 ]
    mass: 204.383300
  - symbol: Tl # 24
    coordinates: [  0.364650315351500,  0.274954056554292,  0.723490805356717 ]
    mass: 204.383300
  reciprocal_lattice: # without 2pi
  - [     0.111468410177923,    -0.070239443534465,     0.000000000000000 ] # a*
  - [     0.111468410177923,     0.070239443534465,     0.000000000000000 ] # b*
  - [    -0.000000000000000,     0.000000000000000,     0.086308307427470 ] # c*

unit_cell:
  lattice:
  - [     8.971151543328034,    -0.000000000000000,     0.000000000000001 ] # a
  - [     0.000000000000000,    14.237014840661720,    -0.000000000000023 ] # b
  - [    -0.000000000000001,    -0.000000000000001,    11.586370186211356 ] # c
  points:
  - symbol: Na # 1
    coordinates: [  0.500000000000000,  0.425250535079386,  0.249999999999996 ]
    mass: 22.989769
    reduced_to: 1
  - symbol: Na # 2
    coordinates: [  0.500000000000000,  0.574749464920616,  0.749999999999995 ]
    mass: 22.989769
    reduced_to: 2
  - symbol: Na # 3
    coordinates: [  0.604926451369507,  0.000000000000001,  0.499999999999996 ]
    mass: 22.989769
    reduced_to: 3
  - symbol: Na # 4
    coordinates: [  0.395073548630493,  0.000000000000001, -0.000000000000005 ]
    mass: 22.989769
    reduced_to: 4
  - symbol: Na # 5
    coordinates: [  0.696899425004460,  0.206964812658864,  0.671325794712309 ]
    mass: 22.989769
    reduced_to: 5
  - symbol: Na # 6
    coordinates: [  0.303100574995540,  0.793035187341137,  0.171325794712309 ]
    mass: 22.989769
    reduced_to: 6
  - symbol: Na # 7
    coordinates: [  0.696899425004460,  0.793035187341137,  0.328674205287682 ]
    mass: 22.989769
    reduced_to: 7
  - symbol: Na # 8
    coordinates: [  0.303100574995540,  0.206964812658864,  0.828674205287683 ]
    mass: 22.989769
    reduced_to: 8
  - symbol: Na # 9
    coordinates: [  0.289333619989592,  0.876085147944030,  0.459132372284034 ]
    mass: 22.989769
    reduced_to: 9
  - symbol: Na # 10
    coordinates: [  0.710666380010408,  0.123914852055972,  0.959132372284033 ]
    mass: 22.989769
    reduced_to: 10
  - symbol: Na # 11
    coordinates: [  0.289333619989592,  0.123914852055971,  0.540867627715957 ]
    mass: 22.989769
    reduced_to: 11
  - symbol: Na # 12
    coordinates: [  0.710666380010408,  0.876085147944029,  0.040867627715958 ]
    mass: 22.989769
    reduced_to: 12
  - symbol: Na # 13
    coordinates: [  0.423269530957918,  0.629076650484998,  0.415930075298443 ]
    mass: 22.989769
    reduced_to: 13
  - symbol: Na # 14
    coordinates: [  0.576730469042081,  0.370923349515004,  0.915930075298443 ]
    mass: 22.989769
    reduced_to: 14
  - symbol: Na # 15
    coordinates: [  0.423269530957919,  0.370923349515004,  0.584069924701548 ]
    mass: 22.989769
    reduced_to: 15
  - symbol: Na # 16
    coordinates: [  0.576730469042081,  0.629076650484997,  0.084069924701548 ]
    mass: 22.989769
    reduced_to: 16
  - symbol: Na # 17
    coordinates: [ -0.000000000000000,  0.925250535079386,  0.249999999999996 ]
    mass: 22.989769
    reduced_to: 1
  - symbol: Na # 18
    coordinates: [ -0.000000000000000,  0.074749464920616,  0.749999999999995 ]
    mass: 22.989769
    reduced_to: 2
  - symbol: Na # 19
    coordinates: [  0.104926451369507,  0.500000000000001,  0.499999999999996 ]
    mass: 22.989769
    reduced_to: 3
  - symbol: Na # 20
    coordinates: [  0.895073548630493,  0.500000000000000, -0.000000000000004 ]
    mass: 22.989769
    reduced_to: 4
  - symbol: Na # 21
    coordinates: [  0.196899425004459,  0.706964812658864,  0.671325794712309 ]
    mass: 22.989769
    reduced_to: 5
  - symbol: Na # 22
    coordinates: [  0.803100574995540,  0.293035187341137,  0.171325794712309 ]
    mass: 22.989769
    reduced_to: 6
  - symbol: Na # 23
    coordinates: [  0.196899425004460,  0.293035187341137,  0.328674205287682 ]
    mass: 22.989769
    reduced_to: 7
  - symbol: Na # 24
    coordinates: [  0.803100574995540,  0.706964812658864,  0.828674205287683 ]
    mass: 22.989769
    reduced_to: 8
  - symbol: Na # 25
    coordinates: [  0.789333619989591,  0.376085147944030,  0.459132372284034 ]
    mass: 22.989769
    reduced_to: 9
  - symbol: Na # 26
    coordinates: [  0.210666380010408,  0.623914852055972,  0.959132372284033 ]
    mass: 22.989769
    reduced_to: 10
  - symbol: Na # 27
    coordinates: [  0.789333619989591,  0.623914852055971,  0.540867627715957 ]
    mass: 22.989769
    reduced_to: 11
  - symbol: Na # 28
    coordinates: [  0.210666380010408,  0.376085147944030,  0.040867627715958 ]
    mass: 22.989769
    reduced_to: 12
  - symbol: Na # 29
    coordinates: [  0.923269530957918,  0.129076650484997,  0.415930075298443 ]
    mass: 22.989769
    reduced_to: 13
  - symbol: Na # 30
    coordinates: [  0.076730469042081,  0.870923349515005,  0.915930075298443 ]
    mass: 22.989769
    reduced_to: 14
  - symbol: Na # 31
    coordinates: [  0.923269530957918,  0.870923349515004,  0.584069924701548 ]
    mass: 22.989769
    reduced_to: 15
  - symbol: Na # 32
    coordinates: [  0.076730469042081,  0.129076650484997,  0.084069924701548 ]
    mass: 22.989769
    reduced_to: 16
  - symbol: Tl # 33
    coordinates: [  0.556756465884938,  0.215259061556709,  0.385074053659452 ]
    mass: 204.383300
    reduced_to: 33
  - symbol: Tl # 34
    coordinates: [  0.443243534115062,  0.784740938443292,  0.885074053659452 ]
    mass: 204.383300
    reduced_to: 34
  - symbol: Tl # 35
    coordinates: [  0.556756465884938,  0.784740938443292,  0.614925946340539 ]
    mass: 204.383300
    reduced_to: 35
  - symbol: Tl # 36
    coordinates: [  0.443243534115062,  0.215259061556709,  0.114925946340539 ]
    mass: 204.383300
    reduced_to: 36
  - symbol: Tl # 37
    coordinates: [  0.680197814047105,  0.955151870601396,  0.776509194643275 ]
    mass: 204.383300
    reduced_to: 37
  - symbol: Tl # 38
    coordinates: [  0.319802185952896,  0.044848129398605,  0.276509194643275 ]
    mass: 204.383300
    reduced_to: 38
  - symbol: Tl # 39
    coordinates: [  0.680197814047105,  0.044848129398605,  0.223490805356716 ]
    mass: 204.383300
    reduced_to: 39
  - symbol: Tl # 40
    coordinates: [  0.319802185952896,  0.955151870601396,  0.723490805356717 ]
    mass: 204.383300
    reduced_to: 40
  - symbol: Tl # 41
    coordinates: [  0.056756465884938,  0.715259061556709,  0.385074053659452 ]
    mass: 204.383300
    reduced_to: 33
  - symbol: Tl # 42
    coordinates: [  0.943243534115062,  0.284740938443292,  0.885074053659452 ]
    mass: 204.383300
    reduced_to: 34
  - symbol: Tl # 43
    coordinates: [  0.056756465884938,  0.284740938443292,  0.614925946340539 ]
    mass: 204.383300
    reduced_to: 35
  - symbol: Tl # 44
    coordinates: [  0.943243534115062,  0.715259061556709,  0.114925946340539 ]
    mass: 204.383300
    reduced_to: 36
  - symbol: Tl # 45
    coordinates: [  0.180197814047105,  0.455151870601396,  0.776509194643274 ]
    mass: 204.383300
    reduced_to: 37
  - symbol: Tl # 46
    coordinates: [  0.819802185952896,  0.544848129398605,  0.276509194643274 ]
    mass: 204.383300
    reduced_to: 38
  - symbol: Tl # 47
    coordinates: [  0.180197814047105,  0.544848129398605,  0.223490805356716 ]
    mass: 204.383300
    reduced_to: 39
  - symbol: Tl # 48
    coordinates: [  0.819802185952896,  0.455151870601396,  0.723490805356717 ]
    mass: 204.383300
    reduced_to: 40

supercell:
  lattice:
  - [    26.913454629984102,    -0.000000000000000,     0.000000000000002 ] # a
  - [     0.000000000000000,    28.474029681323440,    -0.000000000000047 ] # b
  - [    -0.000000000000001,    -0.000000000000002,    23.172740372422712 ] # c
  points:
  - symbol: Na # 1
    coordinates: [  0.166666666666667,  0.212625267539693,  0.124999999999998 ]
    mass: 22.989769
    reduced_to: 1
  - symbol: Na # 2
    coordinates: [  0.500000000000000,  0.212625267539693,  0.124999999999998 ]
    mass: 22.989769
    reduced_to: 1
  - symbol: Na # 3
    coordinates: [  0.833333333333333,  0.212625267539693,  0.124999999999998 ]
    mass: 22.989769
    reduced_to: 1
  - symbol: Na # 4
    coordinates: [  0.166666666666667,  0.712625267539693,  0.124999999999998 ]
    mass: 22.989769
    reduced_to: 1
  - symbol: Na # 5
    coordinates: [  0.500000000000000,  0.712625267539693,  0.124999999999998 ]
    mass: 22.989769
    reduced_to: 1
  - symbol: Na # 6
    coordinates: [  0.833333333333333,  0.712625267539693,  0.124999999999998 ]
    mass: 22.989769
    reduced_to: 1
  - symbol: Na # 7
    coordinates: [  0.166666666666667,  0.212625267539693,  0.624999999999998 ]
    mass: 22.989769
    reduced_to: 1
  - symbol: Na # 8
    coordinates: [  0.500000000000000,  0.212625267539693,  0.624999999999998 ]
    mass: 22.989769
    reduced_to: 1
  - symbol: Na # 9
    coordinates: [  0.833333333333333,  0.212625267539693,  0.624999999999998 ]
    mass: 22.989769
    reduced_to: 1
  - symbol: Na # 10
    coordinates: [  0.166666666666667,  0.712625267539693,  0.624999999999998 ]
    mass: 22.989769
    reduced_to: 1
  - symbol: Na # 11
    coordinates: [  0.500000000000000,  0.712625267539693,  0.624999999999998 ]
    mass: 22.989769
    reduced_to: 1
  - symbol: Na # 12
    coordinates: [  0.833333333333333,  0.712625267539693,  0.624999999999998 ]
    mass: 22.989769
    reduced_to: 1
  - symbol: Na # 13
    coordinates: [  0.166666666666667,  0.287374732460308,  0.374999999999998 ]
    mass: 22.989769
    reduced_to: 13
  - symbol: Na # 14
    coordinates: [  0.500000000000000,  0.287374732460308,  0.374999999999998 ]
    mass: 22.989769
    reduced_to: 13
  - symbol: Na # 15
    coordinates: [  0.833333333333333,  0.287374732460308,  0.374999999999998 ]
    mass: 22.989769
    reduced_to: 13
  - symbol: Na # 16
    coordinates: [  0.166666666666667,  0.787374732460308,  0.374999999999998 ]
    mass: 22.989769
    reduced_to: 13
  - symbol: Na # 17
    coordinates: [  0.500000000000000,  0.787374732460308,  0.374999999999998 ]
    mass: 22.989769
    reduced_to: 13
  - symbol: Na # 18
    coordinates: [  0.833333333333333,  0.787374732460308,  0.374999999999998 ]
    mass: 22.989769
    reduced_to: 13
  - symbol: Na # 19
    coordinates: [  0.166666666666667,  0.287374732460308,  0.874999999999998 ]
    mass: 22.989769
    reduced_to: 13
  - symbol: Na # 20
    coordinates: [  0.500000000000000,  0.287374732460308,  0.874999999999998 ]
    mass: 22.989769
    reduced_to: 13
  - symbol: Na # 21
    coordinates: [  0.833333333333333,  0.287374732460308,  0.874999999999998 ]
    mass: 22.989769
    reduced_to: 13
  - symbol: Na # 22
    coordinates: [  0.166666666666667,  0.787374732460308,  0.874999999999998 ]
    mass: 22.989769
    reduced_to: 13
  - symbol: Na # 23
    coordinates: [  0.500000000000000,  0.787374732460308,  0.874999999999998 ]
    mass: 22.989769
    reduced_to: 13
  - symbol: Na # 24
    coordinates: [  0.833333333333333,  0.787374732460308,  0.874999999999998 ]
    mass: 22.989769
    reduced_to: 13
  - symbol: Na # 25
    coordinates: [  0.201642150456502,  0.000000000000000,  0.249999999999998 ]
    mass: 22.989769
    reduced_to: 25
  - symbol: Na # 26
    coordinates: [  0.534975483789836,  0.000000000000000,  0.249999999999998 ]
    mass: 22.989769
    reduced_to: 25
  - symbol: Na # 27
    coordinates: [  0.868308817123169,  0.000000000000000,  0.249999999999998 ]
    mass: 22.989769
    reduced_to: 25
  - symbol: Na # 28
    coordinates: [  0.201642150456502,  0.500000000000000,  0.249999999999998 ]
    mass: 22.989769
    reduced_to: 25
  - symbol: Na # 29
    coordinates: [  0.534975483789836,  0.500000000000000,  0.249999999999998 ]
    mass: 22.989769
    reduced_to: 25
  - symbol: Na # 30
    coordinates: [  0.868308817123169,  0.500000000000000,  0.249999999999998 ]
    mass: 22.989769
    reduced_to: 25
  - symbol: Na # 31
    coordinates: [  0.201642150456502,  0.000000000000000,  0.749999999999998 ]
    mass: 22.989769
    reduced_to: 25
  - symbol: Na # 32
    coordinates: [  0.534975483789836,  0.000000000000000,  0.749999999999998 ]
    mass: 22.989769
    reduced_to: 25
  - symbol: Na # 33
    coordinates: [  0.868308817123169,  0.000000000000000,  0.749999999999998 ]
    mass: 22.989769
    reduced_to: 25
  - symbol: Na # 34
    coordinates: [  0.201642150456502,  0.500000000000000,  0.749999999999998 ]
    mass: 22.989769
    reduced_to: 25
  - symbol: Na # 35
    coordinates: [  0.534975483789836,  0.500000000000000,  0.749999999999998 ]
    mass: 22.989769
    reduced_to: 25
  - symbol: Na # 36
    coordinates: [  0.868308817123169,  0.500000000000000,  0.749999999999998 ]
    mass: 22.989769
    reduced_to: 25
  - symbol: Na # 37
    coordinates: [  0.131691182876831,  0.000000000000000,  0.999999999999998 ]
    mass: 22.989769
    reduced_to: 37
  - symbol: Na # 38
    coordinates: [  0.465024516210164,  0.000000000000000,  0.999999999999998 ]
    mass: 22.989769
    reduced_to: 37
  - symbol: Na # 39
    coordinates: [  0.798357849543498,  0.000000000000000,  0.999999999999998 ]
    mass: 22.989769
    reduced_to: 37
  - symbol: Na # 40
    coordinates: [  0.131691182876831,  0.500000000000000,  0.999999999999998 ]
    mass: 22.989769
    reduced_to: 37
  - symbol: Na # 41
    coordinates: [  0.465024516210164,  0.500000000000000,  0.999999999999998 ]
    mass: 22.989769
    reduced_to: 37
  - symbol: Na # 42
    coordinates: [  0.798357849543498,  0.500000000000000,  0.999999999999998 ]
    mass: 22.989769
    reduced_to: 37
  - symbol: Na # 43
    coordinates: [  0.131691182876831,  0.000000000000000,  0.499999999999998 ]
    mass: 22.989769
    reduced_to: 37
  - symbol: Na # 44
    coordinates: [  0.465024516210164,  0.000000000000000,  0.499999999999998 ]
    mass: 22.989769
    reduced_to: 37
  - symbol: Na # 45
    coordinates: [  0.798357849543498,  0.000000000000000,  0.499999999999998 ]
    mass: 22.989769
    reduced_to: 37
  - symbol: Na # 46
    coordinates: [  0.131691182876831,  0.500000000000000,  0.499999999999998 ]
    mass: 22.989769
    reduced_to: 37
  - symbol: Na # 47
    coordinates: [  0.465024516210164,  0.500000000000000,  0.499999999999998 ]
    mass: 22.989769
    reduced_to: 37
  - symbol: Na # 48
    coordinates: [  0.798357849543498,  0.500000000000000,  0.499999999999998 ]
    mass: 22.989769
    reduced_to: 37
  - symbol: Na # 49
    coordinates: [  0.232299808334820,  0.103482406329432,  0.335662897356155 ]
    mass: 22.989769
    reduced_to: 49
  - symbol: Na # 50
    coordinates: [  0.565633141668153,  0.103482406329432,  0.335662897356155 ]
    mass: 22.989769
    reduced_to: 49
  - symbol: Na # 51
    coordinates: [  0.898966475001487,  0.103482406329432,  0.335662897356155 ]
    mass: 22.989769
    reduced_to: 49
  - symbol: Na # 52
    coordinates: [  0.232299808334820,  0.603482406329432,  0.335662897356155 ]
    mass: 22.989769
    reduced_to: 49
  - symbol: Na # 53
    coordinates: [  0.565633141668153,  0.603482406329432,  0.335662897356155 ]
    mass: 22.989769
    reduced_to: 49
  - symbol: Na # 54
    coordinates: [  0.898966475001487,  0.603482406329432,  0.335662897356155 ]
    mass: 22.989769
    reduced_to: 49
  - symbol: Na # 55
    coordinates: [  0.232299808334820,  0.103482406329432,  0.835662897356155 ]
    mass: 22.989769
    reduced_to: 49
  - symbol: Na # 56
    coordinates: [  0.565633141668153,  0.103482406329432,  0.835662897356155 ]
    mass: 22.989769
    reduced_to: 49
  - symbol: Na # 57
    coordinates: [  0.898966475001487,  0.103482406329432,  0.835662897356155 ]
    mass: 22.989769
    reduced_to: 49
  - symbol: Na # 58
    coordinates: [  0.232299808334820,  0.603482406329432,  0.835662897356155 ]
    mass: 22.989769
    reduced_to: 49
  - symbol: Na # 59
    coordinates: [  0.565633141668153,  0.603482406329432,  0.835662897356155 ]
    mass: 22.989769
    reduced_to: 49
  - symbol: Na # 60
    coordinates: [  0.898966475001487,  0.603482406329432,  0.835662897356155 ]
    mass: 22.989769
    reduced_to: 49
  - symbol: Na # 61
    coordinates: [  0.101033524998513,  0.396517593670568,  0.085662897356154 ]
    mass: 22.989769
    reduced_to: 61
  - symbol: Na # 62
    coordinates: [  0.434366858331847,  0.396517593670568,  0.085662897356154 ]
    mass: 22.989769
    reduced_to: 61
  - symbol: Na # 63
    coordinates: [  0.767700191665180,  0.396517593670568,  0.085662897356154 ]
    mass: 22.989769
    reduced_to: 61
  - symbol: Na # 64
    coordinates: [  0.101033524998513,  0.896517593670568,  0.085662897356154 ]
    mass: 22.989769
    reduced_to: 61
  - symbol: Na # 65
    coordinates: [  0.434366858331847,  0.896517593670568,  0.085662897356154 ]
    mass: 22.989769
    reduced_to: 61
  - symbol: Na # 66
    coordinates: [  0.767700191665180,  0.896517593670568,  0.085662897356154 ]
    mass: 22.989769
    reduced_to: 61
  - symbol: Na # 67
    coordinates: [  0.101033524998513,  0.396517593670568,  0.585662897356154 ]
    mass: 22.989769
    reduced_to: 61
  - symbol: Na # 68
    coordinates: [  0.434366858331847,  0.396517593670568,  0.585662897356154 ]
    mass: 22.989769
    reduced_to: 61
  - symbol: Na # 69
    coordinates: [  0.767700191665180,  0.396517593670568,  0.585662897356154 ]
    mass: 22.989769
    reduced_to: 61
  - symbol: Na # 70
    coordinates: [  0.101033524998513,  0.896517593670568,  0.585662897356154 ]
    mass: 22.989769
    reduced_to: 61
  - symbol: Na # 71
    coordinates: [  0.434366858331847,  0.896517593670568,  0.585662897356154 ]
    mass: 22.989769
    reduced_to: 61
  - symbol: Na # 72
    coordinates: [  0.767700191665180,  0.896517593670568,  0.585662897356154 ]
    mass: 22.989769
    reduced_to: 61
  - symbol: Na # 73
    coordinates: [  0.232299808334820,  0.396517593670568,  0.164337102643841 ]
    mass: 22.989769
    reduced_to: 73
  - symbol: Na # 74
    coordinates: [  0.565633141668153,  0.396517593670568,  0.164337102643841 ]
    mass: 22.989769
    reduced_to: 73
  - symbol: Na # 75
    coordinates: [  0.898966475001487,  0.396517593670568,  0.164337102643841 ]
    mass: 22.989769
    reduced_to: 73
  - symbol: Na # 76
    coordinates: [  0.232299808334820,  0.896517593670568,  0.164337102643841 ]
    mass: 22.989769
    reduced_to: 73
  - symbol: Na # 77
    coordinates: [  0.565633141668153,  0.896517593670568,  0.164337102643841 ]
    mass: 22.989769
    reduced_to: 73
  - symbol: Na # 78
    coordinates: [  0.898966475001487,  0.896517593670568,  0.164337102643841 ]
    mass: 22.989769
    reduced_to: 73
  - symbol: Na # 79
    coordinates: [  0.232299808334820,  0.396517593670568,  0.664337102643841 ]
    mass: 22.989769
    reduced_to: 73
  - symbol: Na # 80
    coordinates: [  0.565633141668153,  0.396517593670568,  0.664337102643841 ]
    mass: 22.989769
    reduced_to: 73
  - symbol: Na # 81
    coordinates: [  0.898966475001487,  0.396517593670568,  0.664337102643841 ]
    mass: 22.989769
    reduced_to: 73
  - symbol: Na # 82
    coordinates: [  0.232299808334820,  0.896517593670568,  0.664337102643841 ]
    mass: 22.989769
    reduced_to: 73
  - symbol: Na # 83
    coordinates: [  0.565633141668153,  0.896517593670568,  0.664337102643841 ]
    mass: 22.989769
    reduced_to: 73
  - symbol: Na # 84
    coordinates: [  0.898966475001487,  0.896517593670568,  0.664337102643841 ]
    mass: 22.989769
    reduced_to: 73
  - symbol: Na # 85
    coordinates: [  0.101033524998513,  0.103482406329432,  0.414337102643841 ]
    mass: 22.989769
    reduced_to: 85
  - symbol: Na # 86
    coordinates: [  0.434366858331847,  0.103482406329432,  0.414337102643841 ]
    mass: 22.989769
    reduced_to: 85
  - symbol: Na # 87
    coordinates: [  0.767700191665180,  0.103482406329432,  0.414337102643841 ]
    mass: 22.989769
    reduced_to: 85
  - symbol: Na # 88
    coordinates: [  0.101033524998513,  0.603482406329432,  0.414337102643841 ]
    mass: 22.989769
    reduced_to: 85
  - symbol: Na # 89
    coordinates: [  0.434366858331847,  0.603482406329432,  0.414337102643841 ]
    mass: 22.989769
    reduced_to: 85
  - symbol: Na # 90
    coordinates: [  0.767700191665180,  0.603482406329432,  0.414337102643841 ]
    mass: 22.989769
    reduced_to: 85
  - symbol: Na # 91
    coordinates: [  0.101033524998513,  0.103482406329432,  0.914337102643841 ]
    mass: 22.989769
    reduced_to: 85
  - symbol: Na # 92
    coordinates: [  0.434366858331847,  0.103482406329432,  0.914337102643841 ]
    mass: 22.989769
    reduced_to: 85
  - symbol: Na # 93
    coordinates: [  0.767700191665180,  0.103482406329432,  0.914337102643841 ]
    mass: 22.989769
    reduced_to: 85
  - symbol: Na # 94
    coordinates: [  0.101033524998513,  0.603482406329432,  0.914337102643841 ]
    mass: 22.989769
    reduced_to: 85
  - symbol: Na # 95
    coordinates: [  0.434366858331847,  0.603482406329432,  0.914337102643841 ]
    mass: 22.989769
    reduced_to: 85
  - symbol: Na # 96
    coordinates: [  0.767700191665180,  0.603482406329432,  0.914337102643841 ]
    mass: 22.989769
    reduced_to: 85
  - symbol: Na # 97
    coordinates: [  0.096444539996531,  0.438042573972015,  0.229566186142017 ]
    mass: 22.989769
    reduced_to: 97
  - symbol: Na # 98
    coordinates: [  0.429777873329864,  0.438042573972015,  0.229566186142017 ]
    mass: 22.989769
    reduced_to: 97
  - symbol: Na # 99
    coordinates: [  0.763111206663197,  0.438042573972015,  0.229566186142017 ]
    mass: 22.989769
    reduced_to: 97
  - symbol: Na # 100
    coordinates: [  0.096444539996531,  0.938042573972015,  0.229566186142017 ]
    mass: 22.989769
    reduced_to: 97
  - symbol: Na # 101
    coordinates: [  0.429777873329864,  0.938042573972015,  0.229566186142017 ]
    mass: 22.989769
    reduced_to: 97
  - symbol: Na # 102
    coordinates: [  0.763111206663197,  0.938042573972015,  0.229566186142017 ]
    mass: 22.989769
    reduced_to: 97
  - symbol: Na # 103
    coordinates: [  0.096444539996531,  0.438042573972015,  0.729566186142017 ]
    mass: 22.989769
    reduced_to: 97
  - symbol: Na # 104
    coordinates: [  0.429777873329864,  0.438042573972015,  0.729566186142017 ]
    mass: 22.989769
    reduced_to: 97
  - symbol: Na # 105
    coordinates: [  0.763111206663197,  0.438042573972015,  0.729566186142017 ]
    mass: 22.989769
    reduced_to: 97
  - symbol: Na # 106
    coordinates: [  0.096444539996531,  0.938042573972015,  0.729566186142017 ]
    mass: 22.989769
    reduced_to: 97
  - symbol: Na # 107
    coordinates: [  0.429777873329864,  0.938042573972015,  0.729566186142017 ]
    mass: 22.989769
    reduced_to: 97
  - symbol: Na # 108
    coordinates: [  0.763111206663197,  0.938042573972015,  0.729566186142017 ]
    mass: 22.989769
    reduced_to: 97
  - symbol: Na # 109
    coordinates: [  0.236888793336803,  0.061957426027986,  0.479566186142017 ]
    mass: 22.989769
    reduced_to: 109
  - symbol: Na # 110
    coordinates: [  0.570222126670136,  0.061957426027986,  0.479566186142017 ]
    mass: 22.989769
    reduced_to: 109
  - symbol: Na # 111
    coordinates: [  0.903555460003469,  0.061957426027986,  0.479566186142017 ]
    mass: 22.989769
    reduced_to: 109
  - symbol: Na # 112
    coordinates: [  0.236888793336803,  0.561957426027986,  0.479566186142017 ]
    mass: 22.989769
    reduced_to: 109
  - symbol: Na # 113
    coordinates: [  0.570222126670136,  0.561957426027986,  0.479566186142017 ]
    mass: 22.989769
    reduced_to: 109
  - symbol: Na # 114
    coordinates: [  0.903555460003469,  0.561957426027986,  0.479566186142017 ]
    mass: 22.989769
    reduced_to: 109
  - symbol: Na # 115
    coordinates: [  0.236888793336803,  0.061957426027986,  0.979566186142017 ]
    mass: 22.989769
    reduced_to: 109
  - symbol: Na # 116
    coordinates: [  0.570222126670136,  0.061957426027986,  0.979566186142017 ]
    mass: 22.989769
    reduced_to: 109
  - symbol: Na # 117
    coordinates: [  0.903555460003469,  0.061957426027986,  0.979566186142017 ]
    mass: 22.989769
    reduced_to: 109
  - symbol: Na # 118
    coordinates: [  0.236888793336803,  0.561957426027986,  0.979566186142017 ]
    mass: 22.989769
    reduced_to: 109
  - symbol: Na # 119
    coordinates: [  0.570222126670136,  0.561957426027986,  0.979566186142017 ]
    mass: 22.989769
    reduced_to: 109
  - symbol: Na # 120
    coordinates: [  0.903555460003469,  0.561957426027986,  0.979566186142017 ]
    mass: 22.989769
    reduced_to: 109
  - symbol: Na # 121
    coordinates: [  0.096444539996531,  0.061957426027986,  0.270433813857979 ]
    mass: 22.989769
    reduced_to: 121
  - symbol: Na # 122
    coordinates: [  0.429777873329864,  0.061957426027986,  0.270433813857979 ]
    mass: 22.989769
    reduced_to: 121
  - symbol: Na # 123
    coordinates: [  0.763111206663197,  0.061957426027986,  0.270433813857979 ]
    mass: 22.989769
    reduced_to: 121
  - symbol: Na # 124
    coordinates: [  0.096444539996531,  0.561957426027986,  0.270433813857979 ]
    mass: 22.989769
    reduced_to: 121
  - symbol: Na # 125
    coordinates: [  0.429777873329864,  0.561957426027986,  0.270433813857979 ]
    mass: 22.989769
    reduced_to: 121
  - symbol: Na # 126
    coordinates: [  0.763111206663197,  0.561957426027986,  0.270433813857979 ]
    mass: 22.989769
    reduced_to: 121
  - symbol: Na # 127
    coordinates: [  0.096444539996531,  0.061957426027986,  0.770433813857979 ]
    mass: 22.989769
    reduced_to: 121
  - symbol: Na # 128
    coordinates: [  0.429777873329864,  0.061957426027986,  0.770433813857979 ]
    mass: 22.989769
    reduced_to: 121
  - symbol: Na # 129
    coordinates: [  0.763111206663197,  0.061957426027986,  0.770433813857979 ]
    mass: 22.989769
    reduced_to: 121
  - symbol: Na # 130
    coordinates: [  0.096444539996531,  0.561957426027986,  0.770433813857979 ]
    mass: 22.989769
    reduced_to: 121
  - symbol: Na # 131
    coordinates: [  0.429777873329864,  0.561957426027986,  0.770433813857979 ]
    mass: 22.989769
    reduced_to: 121
  - symbol: Na # 132
    coordinates: [  0.763111206663197,  0.561957426027986,  0.770433813857979 ]
    mass: 22.989769
    reduced_to: 121
  - symbol: Na # 133
    coordinates: [  0.236888793336803,  0.438042573972015,  0.020433813857979 ]
    mass: 22.989769
    reduced_to: 133
  - symbol: Na # 134
    coordinates: [  0.570222126670136,  0.438042573972015,  0.020433813857979 ]
    mass: 22.989769
    reduced_to: 133
  - symbol: Na # 135
    coordinates: [  0.903555460003469,  0.438042573972015,  0.020433813857979 ]
    mass: 22.989769
    reduced_to: 133
  - symbol: Na # 136