phonopy:
  version: "2.27.0"
  frequency_unit_conversion_factor: 15.633302
  symmetry_tolerance: 1.00000e-04

space_group:
  type: "C222_1"
  number: 20
  Hall_symbol: "C 2c 2"

primitive_matrix:
- [  0.500000000000000,  0.500000000000000, -0.000000000000000 ]
- [ -0.500000000000000,  0.500000000000000,  0.000000000000000 ]
- [  0.000000000000000, -0.000000000000000,  1.000000000000000 ]

supercell_matrix:
- [   3,   0,   0 ]
- [   0,   2,   0 ]
- [   0,   0,   2 ]

primitive_cell:
  lattice:
  - [     4.485575771663965,    -7.118507420330760,     0.000000000000005 ] # a
  - [     4.485575771663965,     7.118507420330760,    -0.000000000000004 ] # b
  - [    -0.000000000000001,     0.000000000000016,    11.586370186211429 ] # c
  points:
  - symbol: Na # 1
    coordinates: [  0.074749464920615,  0.925250535079386,  0.249999999999996 ]
    mass: 22.989769
  - symbol: Na # 2
    coordinates: [  0.925250535079386,  0.074749464920616,  0.749999999999997 ]
    mass: 22.989769
  - symbol: Na # 3
    coordinates: [  0.604926451369509,  0.604926451369509,  0.499999999999997 ]
    mass: 22.989769
  - symbol: Na # 4
    coordinates: [  0.395073548630490,  0.395073548630490,  0.999999999999997 ]
    mass: 22.989769
  - symbol: Na # 5
    coordinates: [  0.489934612345593,  0.903864237663317,  0.671325794712313 ]
    mass: 22.989769
  - symbol: Na # 6
    coordinates: [  0.510065387654408,  0.096135762336683,  0.171325794712313 ]
    mass: 22.989769
  - symbol: Na # 7
    coordinates: [  0.903864237663316,  0.489934612345594,  0.328674205287680 ]
    mass: 22.989769
  - symbol: Na # 8
    coordinates: [  0.096135762336683,  0.510065387654408,  0.828674205287680 ]
    mass: 22.989769
  - symbol: Na # 9
    coordinates: [  0.413248472045560,  0.165418767933620,  0.459132372284036 ]
    mass: 22.989769
  - symbol: Na # 10
    coordinates: [  0.586751527954441,  0.834581232066380,  0.959132372284036 ]
    mass: 22.989769
  - symbol: Na # 11
    coordinates: [  0.165418767933620,  0.413248472045560,  0.540867627715957 ]
    mass: 22.989769
  - symbol: Na # 12
    coordinates: [  0.834581232066380,  0.586751527954441,  0.040867627715957 ]
    mass: 22.989769
  - symbol: Na # 13
    coordinates: [  0.794192880472925,  0.052346181442916,  0.415930075298446 ]
    mass: 22.989769
  - symbol: Na # 14
    coordinates: [  0.205807119527077,  0.947653818557084,  0.915930075298446 ]
    mass: 22.989769
  - symbol: Na # 15
    coordinates: [  0.052346181442916,  0.794192880472925,  0.584069924701547 ]
    mass: 22.989769
  - symbol: Na # 16
    coordinates: [  0.947653818557084,  0.205807119527076,  0.084069924701548 ]
    mass: 22.989769
  - symbol: Tl # 17
    coordinates: [  0.341497404328228,  0.772015527441645,  0.385074053659453 ]
    mass: 204.383300
  - symbol: Tl # 18
    coordinates: [  0.658502595671772,  0.227984472558356,  0.885074053659453 ]
    mass: 204.383300
  - symbol: Tl # 19
    coordinates: [  0.772015527441644,  0.341497404328228,  0.614925946340541 ]
    mass: 204.383300
  - symbol: Tl # 20
    coordinates: [  0.227984472558356,  0.658502595671773,  0.114925946340541 ]
    mass: 204.383300
  - symbol: Tl # 21
    coordinates: [  0.725045943445712,  0.635349684648501,  0.776509194643275 ]
    mass: 204.383300
  - symbol: Tl # 22
    coordinates: [  0.274954056554289,  0.364650315351499,  0.276509194643275 ]
    mass: 204.383300
  - symbol: Tl # 23
    coordinates: [  0.635349684648501,  0.725045943445712,  0.223490805356719 ]
    mass: 204.383300
  - symbol: Tl # 24
    coordinates: [  0.364650315351500,  0.274954056554288,  0.723490805356718 ]
    mass: 204.383300
  reciprocal_lattice: # without 2pi
  - [     0.111468410177925,    -0.070239443534466,     0.000000000000000 ] # a*
  - [     0.111468410177925,     0.070239443534466,    -0.000000000000000 ] # b*
  - [    -0.000000000000000,     0.000000000000000,     0.086308307427469 ] # c*

unit_cell:
  lattice:
  - [     8.971151543327929,     0.000000000000000,     0.000000000000001 ] # a
  - [     0.000000000000001,    14.237014840661519,    -0.000000000000009 ] # b
  - [    -0.000000000000001,     0.000000000000016,    11.586370186211429 ] # c
  points:
  - symbol: Na # 1
    coordinates: [  0.500000000000001,  0.425250535079385,  0.249999999999996 ]
    mass: 22.989769
    reduced_to: 1
  - symbol: Na # 2
    coordinates: [  0.500000000000001,  0.574749464920615,  0.749999999999997 ]
    mass: 22.989769
    reduced_to: 2
  - symbol: Na # 3
    coordinates: [  0.604926451369509,  0.000000000000000,  0.499999999999997 ]
    mass: 22.989769
    reduced_to: 3
  - symbol: Na # 4
    coordinates: [  0.395073548630490,  0.000000000000000, -0.000000000000003 ]
    mass: 22.989769
    reduced_to: 4
  - symbol: Na # 5
    coordinates: [  0.696899425004455,  0.206964812658862,  0.671325794712313 ]
    mass: 22.989769
    reduced_to: 5
  - symbol: Na # 6
    coordinates: [  0.303100574995545,  0.793035187341138,  0.171325794712313 ]
    mass: 22.989769
    reduced_to: 6
  - symbol: Na # 7
    coordinates: [  0.696899425004455,  0.793035187341139,  0.328674205287680 ]
    mass: 22.989769
    reduced_to: 7
  - symbol: Na # 8
    coordinates: [  0.303100574995545,  0.206964812658862,  0.828674205287680 ]
    mass: 22.989769
    reduced_to: 8
  - symbol: Na # 9
    coordinates: [  0.289333619989590,  0.876085147944030,  0.459132372284036 ]
    mass: 22.989769
    reduced_to: 9
  - symbol: Na # 10
    coordinates: [  0.710666380010410,  0.123914852055970,  0.959132372284036 ]
    mass: 22.989769
    reduced_to: 10
  - symbol: Na # 11
    coordinates: [  0.289333619989590,  0.123914852055970,  0.540867627715957 ]
    mass: 22.989769
    reduced_to: 11
  - symbol: Na # 12
    coordinates: [  0.710666380010410,  0.876085147944031,  0.040867627715957 ]
    mass: 22.989769
    reduced_to: 12
  - symbol: Na # 13
    coordinates: [  0.423269530957921,  0.629076650484996,  0.415930075298446 ]
    mass: 22.989769
    reduced_to: 13
  - symbol: Na # 14
    coordinates: [  0.576730469042080,  0.370923349515004,  0.915930075298446 ]
    mass: 22.989769
    reduced_to: 14
  - symbol: Na # 15
    coordinates: [  0.423269530957921,  0.370923349515004,  0.584069924701547 ]
    mass: 22.989769
    reduced_to: 15
  - symbol: Na # 16
    coordinates: [  0.576730469042080,  0.629076650484996,  0.084069924701548 ]
    mass: 22.989769
    reduced_to: 16
  - symbol: Na # 17
    coordinates: [  0.000000000000000,  0.925250535079385,  0.249999999999996 ]
    mass: 22.989769
    reduced_to: 1
  - symbol: Na # 18
    coordinates: [  0.000000000000001,  0.074749464920615,  0.749999999999997 ]
    mass: 22.989769
    reduced_to: 2
  - symbol: Na # 19
    coordinates: [  0.104926451369510,  0.500000000000000,  0.499999999999997 ]
    mass: 22.989769
    reduced_to: 3
  - symbol: Na # 20
    coordinates: [  0.895073548630490,  0.500000000000000, -0.000000000000003 ]
    mass: 22.989769
    reduced_to: 4
  - symbol: Na # 21
    coordinates: [  0.196899425004455,  0.706964812658862,  0.671325794712313 ]
    mass: 22.989769
    reduced_to: 5
  - symbol: Na # 22
    coordinates: [  0.803100574995546,  0.293035187341138,  0.171325794712313 ]
    mass: 22.989769
    reduced_to: 6
  - symbol: Na # 23
    coordinates: [  0.196899425004455,  0.293035187341138,  0.328674205287680 ]
    mass: 22.989769
    reduced_to: 7
  - symbol: Na # 24
    coordinates: [  0.803100574995546,  0.706964812658862,  0.828674205287680 ]
    mass: 22.989769
    reduced_to: 8
  - symbol: Na # 25
    coordinates: [  0.789333619989591,  0.376085147944030,  0.459132372284036 ]
    mass: 22.989769
    reduced_to: 9
  - symbol: Na # 26
    coordinates: [  0.210666380010411,  0.623914852055970,  0.959132372284036 ]
    mass: 22.989769
    reduced_to: 10
  - symbol: Na # 27
    coordinates: [  0.789333619989591,  0.623914852055970,  0.540867627715957 ]
    mass: 22.989769
    reduced_to: 11
  - symbol: Na # 28
    coordinates: [  0.210666380010411,  0.376085147944030,  0.040867627715957 ]
    mass: 22.989769
    reduced_to: 12
  - symbol: Na # 29
    coordinates: [  0.923269530957921,  0.129076650484995,  0.415930075298446 ]
    mass: 22.989769
    reduced_to: 13
  - symbol: Na # 30
    coordinates: [  0.076730469042080,  0.870923349515004,  0.915930075298446 ]
    mass: 22.989769
    reduced_to: 14
  - symbol: Na # 31
    coordinates: [  0.923269530957921,  0.870923349515004,  0.584069924701547 ]
    mass: 22.989769
    reduced_to: 15
  - symbol: Na # 32
    coordinates: [  0.076730469042080,  0.129076650484996,  0.084069924701548 ]
    mass: 22.989769
    reduced_to: 16
  - symbol: Tl # 33
    coordinates: [  0.556756465884936,  0.215259061556709,  0.385074053659453 ]
    mass: 204.383300
    reduced_to: 33
  - symbol: Tl # 34
    coordinates: [  0.443243534115064,  0.784740938443292,  0.885074053659453 ]
    mass: 204.383300
    reduced_to: 34
  - symbol: Tl # 35
    coordinates: [  0.556756465884936,  0.784740938443292,  0.614925946340541 ]
    mass: 204.383300
    reduced_to: 35
  - symbol: Tl # 36
    coordinates: [  0.443243534115064,  0.215259061556708,  0.114925946340541 ]
    mass: 204.383300
    reduced_to: 36
  - symbol: Tl # 37
    coordinates: [  0.680197814047107,  0.955151870601394,  0.776509194643275 ]
    mass: 204.383300
    reduced_to: 37
  - symbol: Tl # 38
    coordinates: [  0.319802185952894,  0.044848129398605,  0.276509194643275 ]
    mass: 204.383300
    reduced_to: 38
  - symbol: Tl # 39
    coordinates: [  0.680197814047107,  0.044848129398605,  0.223490805356719 ]
    mass: 204.383300
    reduced_to: 39
  - symbol: Tl # 40
    coordinates: [  0.319802185952894,  0.955151870601394,  0.723490805356718 ]
    mass: 204.383300
    reduced_to: 40
  - symbol: Tl # 41
    coordinates: [  0.056756465884936,  0.715259061556708,  0.385074053659453 ]
    mass: 204.383300
    reduced_to: 33
  - symbol: Tl # 42
    coordinates: [  0.943243534115064,  0.284740938443292,  0.885074053659453 ]
    mass: 204.383300
    reduced_to: 34
  - symbol: Tl # 43
    coordinates: [  0.056756465884936,  0.284740938443292,  0.614925946340541 ]
    mass: 204.383300
    reduced_to: 35
  - symbol: Tl # 44
    coordinates: [  0.943243534115064,  0.715259061556708,  0.114925946340540 ]
    mass: 204.383300
    reduced_to: 36
  - symbol: Tl # 45
    coordinates: [  0.180197814047107,  0.455151870601395,  0.776509194643275 ]
    mass: 204.383300
    reduced_to: 37
  - symbol: Tl # 46
    coordinates: [  0.819802185952894,  0.544848129398606,  0.276509194643275 ]
    mass: 204.383300
    reduced_to: 38
  - symbol: Tl # 47
    coordinates: [  0.180197814047107,  0.544848129398605,  0.223490805356719 ]
    mass: 204.383300
    reduced_to: 39
  - symbol: Tl # 48
    coordinates: [  0.819802185952894,  0.455151870601394,  0.723490805356719 ]
    mass: 204.383300
    reduced_to: 40

supercell:
  lattice:
  - [    26.913454629983789,     0.000000000000000,     0.000000000000002 ] # a
  - [     0.000000000000002,    28.474029681323039,    -0.000000000000018 ] # b
  - [    -0.000000000000002,     0.000000000000032,    23.172740372422858 ] # c
  points:
  - symbol: Na # 1
    coordinates: [  0.166666666666667,  0.212625267539693,  0.124999999999998 ]
    mass: 22.989769
    reduced_to: 1
  - symbol: Na # 2
    coordinates: [  0.500000000000000,  0.212625267539693,  0.124999999999998 ]
    mass: 22.989769
    reduced_to: 1
  - symbol: Na # 3
    coordinates: [  0.833333333333333,  0.212625267539693,  0.124999999999998 ]
    mass: 22.989769
    reduced_to: 1
  - symbol: Na # 4
    coordinates: [  0.166666666666667,  0.712625267539693,  0.124999999999998 ]
    mass: 22.989769
    reduced_to: 1
  - symbol: Na # 5
    coordinates: [  0.500000000000000,  0.712625267539693,  0.124999999999998 ]
    mass: 22.989769
    reduced_to: 1
  - symbol: Na # 6
    coordinates: [  0.833333333333333,  0.712625267539693,  0.124999999999998 ]
    mass: 22.989769
    reduced_to: 1
  - symbol: Na # 7
    coordinates: [  0.166666666666667,  0.212625267539693,  0.624999999999998 ]
    mass: 22.989769
    reduced_to: 1
  - symbol: Na # 8
    coordinates: [  0.500000000000000,  0.212625267539693,  0.624999999999998 ]
    mass: 22.989769
    reduced_to: 1
  - symbol: Na # 9
    coordinates: [  0.833333333333333,  0.212625267539693,  0.624999999999998 ]
    mass: 22.989769
    reduced_to: 1
  - symbol: Na # 10
    coordinates: [  0.166666666666667,  0.712625267539693,  0.624999999999998 ]
    mass: 22.989769
    reduced_to: 1
  - symbol: Na # 11
    coordinates: [  0.500000000000000,  0.712625267539693,  0.624999999999998 ]
    mass: 22.989769
    reduced_to: 1
  - symbol: Na # 12
    coordinates: [  0.833333333333333,  0.712625267539693,  0.624999999999998 ]
    mass: 22.989769
    reduced_to: 1
  - symbol: Na # 13
    coordinates: [  0.166666666666667,  0.287374732460307,  0.374999999999999 ]
    mass: 22.989769
    reduced_to: 13
  - symbol: Na # 14
    coordinates: [  0.500000000000000,  0.287374732460307,  0.374999999999999 ]
    mass: 22.989769
    reduced_to: 13
  - symbol: Na # 15
    coordinates: [  0.833333333333334,  0.287374732460307,  0.374999999999999 ]
    mass: 22.989769
    reduced_to: 13
  - symbol: Na # 16
    coordinates: [  0.166666666666667,  0.787374732460307,  0.374999999999999 ]
    mass: 22.989769
    reduced_to: 13
  - symbol: Na # 17
    coordinates: [  0.500000000000000,  0.787374732460307,  0.374999999999999 ]
    mass: 22.989769
    reduced_to: 13
  - symbol: Na # 18
    coordinates: [  0.833333333333334,  0.787374732460307,  0.374999999999999 ]
    mass: 22.989769
    reduced_to: 13
  - symbol: Na # 19
    coordinates: [  0.166666666666667,  0.287374732460307,  0.874999999999999 ]
    mass: 22.989769
    reduced_to: 13
  - symbol: Na # 20
    coordinates: [  0.500000000000000,  0.287374732460307,  0.874999999999999 ]
    mass: 22.989769
    reduced_to: 13
  - symbol: Na # 21
    coordinates: [  0.833333333333334,  0.287374732460307,  0.874999999999999 ]
    mass: 22.989769
    reduced_to: 13
  - symbol: Na # 22
    coordinates: [  0.166666666666667,  0.787374732460307,  0.874999999999999 ]
    mass: 22.989769
    reduced_to: 13
  - symbol: Na # 23
    coordinates: [  0.500000000000000,  0.787374732460307,  0.874999999999999 ]
    mass: 22.989769
    reduced_to: 13
  - symbol: Na # 24
    coordinates: [  0.833333333333334,  0.787374732460307,  0.874999999999999 ]
    mass: 22.989769
    reduced_to: 13
  - symbol: Na # 25
    coordinates: [  0.201642150456503,  0.000000000000000,  0.249999999999998 ]
    mass: 22.989769
    reduced_to: 25
  - symbol: Na # 26
    coordinates: [  0.534975483789836,  0.000000000000000,  0.249999999999998 ]
    mass: 22.989769
    reduced_to: 25
  - symbol: Na # 27
    coordinates: [  0.868308817123170,  0.000000000000000,  0.249999999999998 ]
    mass: 22.989769
    reduced_to: 25
  - symbol: Na # 28
    coordinates: [  0.201642150456503,  0.500000000000000,  0.249999999999998 ]
    mass: 22.989769
    reduced_to: 25
  - symbol: Na # 29
    coordinates: [  0.534975483789836,  0.500000000000000,  0.249999999999998 ]
    mass: 22.989769
    reduced_to: 25
  - symbol: Na # 30
    coordinates: [  0.868308817123170,  0.500000000000000,  0.249999999999998 ]
    mass: 22.989769
    reduced_to: 25
  - symbol: Na # 31
    coordinates: [  0.201642150456503,  0.000000000000000,  0.749999999999998 ]
    mass: 22.989769
    reduced_to: 25
  - symbol: Na # 32
    coordinates: [  0.534975483789836,  0.000000000000000,  0.749999999999998 ]
    mass: 22.989769
    reduced_to: 25
  - symbol: Na # 33
    coordinates: [  0.868308817123170,  0.000000000000000,  0.749999999999998 ]
    mass: 22.989769
    reduced_to: 25
  - symbol: Na # 34
    coordinates: [  0.201642150456503,  0.500000000000000,  0.749999999999998 ]
    mass: 22.989769
    reduced_to: 25
  - symbol: Na # 35
    coordinates: [  0.534975483789836,  0.500000000000000,  0.749999999999998 ]
    mass: 22.989769
    reduced_to: 25
  - symbol: Na # 36
    coordinates: [  0.868308817123170,  0.500000000000000,  0.749999999999998 ]
    mass: 22.989769
    reduced_to: 25
  - symbol: Na # 37
    coordinates: [  0.131691182876830,  0.000000000000000,  0.999999999999999 ]
    mass: 22.989769
    reduced_to: 37
  - symbol: Na # 38
    coordinates: [  0.465024516210163,  0.000000000000000,  0.999999999999999 ]
    mass: 22.989769
    reduced_to: 37
  - symbol: Na # 39
    coordinates: [  0.798357849543497,  0.000000000000000,  0.999999999999999 ]
    mass: 22.989769
    reduced_to: 37
  - symbol: Na # 40
    coordinates: [  0.131691182876830,  0.500000000000000,  0.999999999999999 ]
    mass: 22.989769
    reduced_to: 37
  - symbol: Na # 41
    coordinates: [  0.465024516210163,  0.500000000000000,  0.999999999999999 ]
    mass: 22.989769
    reduced_to: 37
  - symbol: Na # 42
    coordinates: [  0.798357849543497,  0.500000000000000,  0.999999999999999 ]
    mass: 22.989769
    reduced_to: 37
  - symbol: Na # 43
    coordinates: [  0.131691182876830,  0.000000000000000,  0.499999999999999 ]
    mass: 22.989769
    reduced_to: 37
  - symbol: Na # 44
    coordinates: [  0.465024516210163,  0.000000000000000,  0.499999999999999 ]
    mass: 22.989769
    reduced_to: 37
  - symbol: Na # 45
    coordinates: [  0.798357849543497,  0.000000000000000,  0.499999999999999 ]
    mass: 22.989769
    reduced_to: 37
  - symbol: Na # 46
    coordinates: [  0.131691182876830,  0.500000000000000,  0.499999999999999 ]
    mass: 22.989769
    reduced_to: 37
  - symbol: Na # 47
    coordinates: [  0.465024516210163,  0.500000000000000,  0.499999999999999 ]
    mass: 22.989769
    reduced_to: 37
  - symbol: Na # 48
    coordinates: [  0.798357849543497,  0.500000000000000,  0.499999999999999 ]
    mass: 22.989769
    reduced_to: 37
  - symbol: Na # 49
    coordinates: [  0.232299808334818,  0.103482406329431,  0.335662897356157 ]
    mass: 22.989769
    reduced_to: 49
  - symbol: Na # 50
    coordinates: [  0.565633141668152,  0.103482406329431,  0.335662897356157 ]
    mass: 22.989769
    reduced_to: 49
  - symbol: Na # 51
    coordinates: [  0.898966475001485,  0.103482406329431,  0.335662897356157 ]
    mass: 22.989769
    reduced_to: 49
  - symbol: Na # 52
    coordinates: [  0.232299808334818,  0.603482406329431,  0.335662897356157 ]
    mass: 22.989769
    reduced_to: 49
  - symbol: Na # 53
    coordinates: [  0.565633141668152,  0.603482406329431,  0.335662897356157 ]
    mass: 22.989769
    reduced_to: 49
  - symbol: Na # 54
    coordinates: [  0.898966475001485,  0.603482406329431,  0.335662897356157 ]
    mass: 22.989769
    reduced_to: 49
  - symbol: Na # 55
    coordinates: [  0.232299808334818,  0.103482406329431,  0.835662897356157 ]
    mass: 22.989769
    reduced_to: 49
  - symbol: Na # 56
    coordinates: [  0.565633141668152,  0.103482406329431,  0.835662897356157 ]
    mass: 22.989769
    reduced_to: 49
  - symbol: Na # 57
    coordinates: [  0.898966475001485,  0.103482406329431,  0.835662897356157 ]
    mass: 22.989769
    reduced_to: 49
  - symbol: Na # 58
    coordinates: [  0.232299808334818,  0.603482406329431,  0.835662897356157 ]
    mass: 22.989769
    reduced_to: 49
  - symbol: Na # 59
    coordinates: [  0.565633141668152,  0.603482406329431,  0.835662897356157 ]
    mass: 22.989769
    reduced_to: 49
  - symbol: Na # 60
    coordinates: [  0.898966475001485,  0.603482406329431,  0.835662897356157 ]
    mass: 22.989769
    reduced_to: 49
  - symbol: Na # 61
    coordinates: [  0.101033524998515,  0.396517593670569,  0.085662897356157 ]
    mass: 22.989769
    reduced_to: 61
  - symbol: Na # 62
    coordinates: [  0.434366858331848,  0.396517593670569,  0.085662897356157 ]
    mass: 22.989769
    reduced_to: 61
  - symbol: Na # 63
    coordinates: [  0.767700191665182,  0.396517593670569,  0.085662897356157 ]
    mass: 22.989769
    reduced_to: 61
  - symbol: Na # 64
    coordinates: [  0.101033524998515,  0.896517593670569,  0.085662897356157 ]
    mass: 22.989769
    reduced_to: 61
  - symbol: Na # 65
    coordinates: [  0.434366858331848,  0.896517593670569,  0.085662897356157 ]
    mass: 22.989769
    reduced_to: 61
  - symbol: Na # 66
    coordinates: [  0.767700191665182,  0.896517593670569,  0.085662897356157 ]
    mass: 22.989769
    reduced_to: 61
  - symbol: Na # 67
    coordinates: [  0.101033524998515,  0.396517593670569,  0.585662897356157 ]
    mass: 22.989769
    reduced_to: 61
  - symbol: Na # 68
    coordinates: [  0.434366858331848,  0.396517593670569,  0.585662897356157 ]
    mass: 22.989769
    reduced_to: 61
  - symbol: Na # 69
    coordinates: [  0.767700191665182,  0.396517593670569,  0.585662897356157 ]
    mass: 22.989769
    reduced_to: 61
  - symbol: Na # 70
    coordinates: [  0.101033524998515,  0.896517593670569,  0.585662897356157 ]
    mass: 22.989769
    reduced_to: 61
  - symbol: Na # 71
    coordinates: [  0.434366858331848,  0.896517593670569,  0.585662897356157 ]
    mass: 22.989769
    reduced_to: 61
  - symbol: Na # 72
    coordinates: [  0.767700191665182,  0.896517593670569,  0.585662897356157 ]
    mass: 22.989769
    reduced_to: 61
  - symbol: Na # 73
    coordinates: [  0.232299808334818,  0.396517593670569,  0.164337102643840 ]
    mass: 22.989769
    reduced_to: 73
  - symbol: Na # 74
    coordinates: [  0.565633141668152,  0.396517593670569,  0.164337102643840 ]
    mass: 22.989769
    reduced_to: 73
  - symbol: Na # 75
    coordinates: [  0.898966475001485,  0.396517593670569,  0.164337102643840 ]
    mass: 22.989769
    reduced_to: 73
  - symbol: Na # 76
    coordinates: [  0.232299808334818,  0.896517593670569,  0.164337102643840 ]
    mass: 22.989769
    reduced_to: 73
  - symbol: Na # 77
    coordinates: [  0.565633141668152,  0.896517593670569,  0.164337102643840 ]
    mass: 22.989769
    reduced_to: 73
  - symbol: Na # 78
    coordinates: [  0.898966475001485,  0.896517593670569,  0.164337102643840 ]
    mass: 22.989769
    reduced_to: 73
  - symbol: Na # 79
    coordinates: [  0.232299808334818,  0.396517593670569,  0.664337102643840 ]
    mass: 22.989769
    reduced_to: 73
  - symbol: Na # 80
    coordinates: [  0.565633141668152,  0.396517593670569,  0.664337102643840 ]
    mass: 22.989769
    reduced_to: 73
  - symbol: Na # 81
    coordinates: [  0.898966475001485,  0.396517593670569,  0.664337102643840 ]
    mass: 22.989769
    reduced_to: 73
  - symbol: Na # 82
    coordinates: [  0.232299808334818,  0.896517593670569,  0.664337102643840 ]
    mass: 22.989769
    reduced_to: 73
  - symbol: Na # 83
    coordinates: [  0.565633141668152,  0.896517593670569,  0.664337102643840 ]
    mass: 22.989769
    reduced_to: 73
  - symbol: Na # 84
    coordinates: [  0.898966475001485,  0.896517593670569,  0.664337102643840 ]
    mass: 22.989769
    reduced_to: 73
  - symbol: Na # 85
    coordinates: [  0.101033524998515,  0.103482406329431,  0.414337102643840 ]
    mass: 22.989769
    reduced_to: 85
  - symbol: Na # 86
    coordinates: [  0.434366858331848,  0.103482406329431,  0.414337102643840 ]
    mass: 22.989769
    reduced_to: 85
  - symbol: Na # 87
    coordinates: [  0.767700191665182,  0.103482406329431,  0.414337102643840 ]
    mass: 22.989769
    reduced_to: 85
  - symbol: Na # 88
    coordinates: [  0.101033524998515,  0.603482406329431,  0.414337102643840 ]
    mass: 22.989769
    reduced_to: 85
  - symbol: Na # 89
    coordinates: [  0.434366858331848,  0.603482406329431,  0.414337102643840 ]
    mass: 22.989769
    reduced_to: 85
  - symbol: Na # 90
    coordinates: [  0.767700191665182,  0.603482406329431,  0.414337102643840 ]
    mass: 22.989769
    reduced_to: 85
  - symbol: Na # 91
    coordinates: [  0.101033524998515,  0.103482406329431,  0.914337102643840 ]
    mass: 22.989769
    reduced_to: 85
  - symbol: Na # 92
    coordinates: [  0.434366858331848,  0.103482406329431,  0.914337102643840 ]
    mass: 22.989769
    reduced_to: 85
  - symbol: Na # 93
    coordinates: [  0.767700191665182,  0.103482406329431,  0.914337102643840 ]
    mass: 22.989769
    reduced_to: 85
  - symbol: Na # 94
    coordinates: [  0.101033524998515,  0.603482406329431,  0.914337102643840 ]
    mass: 22.989769
    reduced_to: 85
  - symbol: Na # 95
    coordinates: [  0.434366858331848,  0.603482406329431,  0.914337102643840 ]
    mass: 22.989769
    reduced_to: 85
  - symbol: Na # 96
    coordinates: [  0.767700191665182,  0.603482406329431,  0.914337102643840 ]
    mass: 22.989769
    reduced_to: 85
  - symbol: Na # 97
    coordinates: [  0.096444539996530,  0.438042573972015,  0.229566186142018 ]
    mass: 22.989769
    reduced_to: 97
  - symbol: Na # 98
    coordinates: [  0.429777873329863,  0.438042573972015,  0.229566186142018 ]
    mass: 22.989769
    reduced_to: 97
  - symbol: Na # 99
    coordinates: [  0.763111206663197,  0.438042573972015,  0.229566186142018 ]
    mass: 22.989769
    reduced_to: 97
  - symbol: Na # 100
    coordinates: [  0.096444539996530,  0.938042573972015,  0.229566186142018 ]
    mass: 22.989769
    reduced_to: 97
  - symbol: Na # 101
    coordinates: [  0.429777873329863,  0.938042573972015,  0.229566186142018 ]
    mass: 22.989769
    reduced_to: 97
  - symbol: Na # 102
    coordinates: [  0.763111206663197,  0.938042573972015,  0.229566186142018 ]
    mass: 22.989769
    reduced_to: 97
  - symbol: Na # 103
    coordinates: [  0.096444539996530,  0.438042573972015,  0.729566186142018 ]
    mass: 22.989769
    reduced_to: 97
  - symbol: Na # 104
    coordinates: [  0.429777873329863,  0.438042573972015,  0.729566186142018 ]
    mass: 22.989769
    reduced_to: 97
  - symbol: Na # 105
    coordinates: [  0.763111206663197,  0.438042573972015,  0.729566186142018 ]
    mass: 22.989769
    reduced_to: 97
  - symbol: Na # 106
    coordinates: [  0.096444539996530,  0.938042573972015,  0.729566186142018 ]
    mass: 22.989769
    reduced_to: 97
  - symbol: Na # 107
    coordinates: [  0.429777873329863,  0.938042573972015,  0.729566186142018 ]
    mass: 22.989769
    reduced_to: 97
  - symbol: Na # 108
    coordinates: [  0.763111206663197,  0.938042573972015,  0.729566186142018 ]
    mass: 22.989769
    reduced_to: 97
  - symbol: Na # 109
    coordinates: [  0.236888793336803,  0.061957426027985,  0.479566186142018 ]
    mass: 22.989769
    reduced_to: 109
  - symbol: Na # 110
    coordinates: [  0.570222126670137,  0.061957426027985,  0.479566186142018 ]
    mass: 22.989769
    reduced_to: 109
  - symbol: Na # 111
    coordinates: [  0.903555460003470,  0.061957426027985,  0.479566186142018 ]
    mass: 22.989769
    reduced_to: 109
  - symbol: Na # 112
    coordinates: [  0.236888793336803,  0.561957426027985,  0.479566186142018 ]
    mass: 22.989769
    reduced_to: 109
  - symbol: Na # 113
    coordinates: [  0.570222126670137,  0.561957426027985,  0.479566186142018 ]
    mass: 22.989769
    reduced_to: 109
  - symbol: Na # 114
    coordinates: [  0.903555460003470,  0.561957426027985,  0.479566186142018 ]
    mass: 22.989769
    reduced_to: 109
  - symbol: Na # 115
    coordinates: [  0.236888793336803,  0.061957426027985,  0.979566186142018 ]
    mass: 22.989769
    reduced_to: 109
  - symbol: Na # 116
    coordinates: [  0.570222126670137,  0.061957426027985,  0.979566186142018 ]
    mass: 22.989769
    reduced_to: 109
  - symbol: Na # 117
    coordinates: [  0.903555460003470,  0.061957426027985,  0.979566186142018 ]
    mass: 22.989769
    reduced_to: 109
  - symbol: Na # 118
    coordinates: [  0.236888793336803,  0.561957426027985,  0.979566186142018 ]
    mass: 22.989769
    reduced_to: 109
  - symbol: Na # 119
    coordinates: [  0.570222126670137,  0.561957426027985,  0.979566186142018 ]
    mass: 22.989769
    reduced_to: 109
  - symbol: Na # 120
    coordinates: [  0.903555460003470,  0.561957426027985,  0.979566186142018 ]
    mass: 22.989769
    reduced_to: 109
  - symbol: Na # 121
    coordinates: [  0.096444539996530,  0.061957426027985,  0.270433813857979 ]
    mass: 22.989769
    reduced_to: 121
  - symbol: Na # 122
    coordinates: [  0.429777873329863,  0.061957426027985,  0.270433813857979 ]
    mass: 22.989769
    reduced_to: 121
  - symbol: Na # 123
    coordinates: [  0.763111206663197,  0.061957426027985,  0.270433813857979 ]
    mass: 22.989769
    reduced_to: 121
  - symbol: Na # 124
    coordinates: [  0.096444539996530,  0.561957426027985,  0.270433813857979 ]
    mass: 22.989769
    reduced_to: 121
  - symbol: Na # 125
    coordinates: [  0.429777873329863,  0.561957426027985,  0.270433813857979 ]
    mass: 22.989769
    reduced_to: 121
  - symbol: Na # 126
    coordinates: [  0.763111206663197,  0.561957426027985,  0.270433813857979 ]
    mass: 22.989769
    reduced_to: 121
  - symbol: Na # 127
    coordinates: [  0.096444539996530,  0.061957426027985,  0.770433813857978 ]
    mass: 22.989769
    reduced_to: 121
  - symbol: Na # 128
    coordinates: [  0.429777873329863,  0.061957426027985,  0.770433813857978 ]
    mass: 22.989769
    reduced_to: 121
  - symbol: Na # 129
    coordinates: [  0.763111206663197,  0.061957426027985,  0.770433813857978 ]
    mass: 22.989769
    reduced_to: 121
  - symbol: Na # 130
    coordinates: [  0.096444539996530,  0.561957426027985,  0.770433813857978 ]
    mass: 22.989769
    reduced_to: 121
  - symbol: Na # 131
    coordinates: [  0.429777873329863,  0.561957426027985,  0.770433813857978 ]
    mass: 22.989769
    reduced_to: 121
  - symbol: Na # 132
    coordinates: [  0.763111206663197,  0.561957426027985,  0.770433813857978 ]
    mass: 22.989769
    reduced_to: 121
  - symbol: Na # 133
    coordinates: [  0.236888793336803,  0.438042573972015,  0.020433813857979 ]
    mass: 22.989769
    reduced_to: 133
  - symbol: Na # 134
    coordinates: [  0.570222126670137,  0.438042573972015,  0.020433813857979 ]
    mass: 22.989769
    reduced_to: 133
  - symbol: Na # 135
    coordinates: [  0.903555460003470,  0.438042573972015,  0.020433813857979 ]
    mass: 22.989769
    reduced_to: 133
  - symbol: Na # 136