phonopy:
  version: "2.21.0"
  frequency_unit_conversion_factor: 15.633302
  symmetry_tolerance: 1.00000e-04

space_group:
  type: "R-3m"
  number: 166
  Hall_symbol: "-R 3 2\""

primitive_matrix:
- [  0.666666666666666, -0.333333333333333, -0.333333333333333 ]
- [  0.333333333333333,  0.333333333333333, -0.666666666666667 ]
- [  0.333333333333333,  0.333333333333333,  0.333333333333333 ]

supercell_matrix:
- [   5,   5,   0 ]
- [  -3,   3,   0 ]
- [   0,   0,   1 ]

primitive_cell:
  lattice:
  - [     2.194115116270915,    -1.266772953012039,    14.167953120268606 ] # a
  - [     0.000000000000000,     2.533545906024078,    14.167953120268606 ] # b
  - [    -2.194115116270916,    -1.266772953012039,    14.167953120268606 ] # c
  points:
  - symbol: Sn # 1
    coordinates: [  0.000000000000000,  0.000000000000000,  0.000000000000000 ]
    mass: 118.710000
  - symbol: Sb # 2
    coordinates: [  0.575034185918561,  0.575034185918549,  0.575034185918557 ]
    mass: 121.760000
  - symbol: Sb # 3
    coordinates: [  0.424965814081444,  0.424965814081433,  0.424965814081441 ]
    mass: 121.760000
  - symbol: Te # 4
    coordinates: [  0.869166369542109,  0.869166369542115,  0.869166369542108 ]
    mass: 127.600000
  - symbol: Te # 5
    coordinates: [  0.130833630457892,  0.130833630457892,  0.130833630457892 ]
    mass: 127.600000
  - symbol: Te # 6
    coordinates: [  0.711711850046937,  0.711711850046944,  0.711711850046937 ]
    mass: 127.600000
  - symbol: Te # 7
    coordinates: [  0.288288149953063,  0.288288149953063,  0.288288149953063 ]
    mass: 127.600000
  reciprocal_lattice: # without 2pi
  - [     0.227882300382576,    -0.131567907469432,     0.023527275288374 ] # a*
  - [    -0.000000000000000,     0.263135814938863,     0.023527275288374 ] # b*
  - [    -0.227882300382576,    -0.131567907469432,     0.023527275288374 ] # c*

unit_cell:
  lattice:
  - [     2.194115116270916,    -3.800318859036118,     0.000000000000000 ] # a
  - [     2.194115116270916,     3.800318859036118,    -0.000000000000000 ] # b
  - [    -0.000000000000001,     0.000000000000001,    42.503859360805826 ] # c
  points:
  - symbol: Sn # 1
    coordinates: [ -0.000000000000000, -0.000000000000000, -0.000000000000000 ]
    mass: 118.710000
    reduced_to: 1
  - symbol: Sn # 2
    coordinates: [  0.666666666666664,  0.333333333333336,  0.333333333333336 ]
    mass: 118.710000
    reduced_to: 1
  - symbol: Sn # 3
    coordinates: [  0.333333333333336,  0.666666666666664,  0.666666666666664 ]
    mass: 118.710000
    reduced_to: 1
  - symbol: Sb # 4
    coordinates: [  0.333333333333336,  0.666666666666664,  0.241700852585222 ]
    mass: 121.760000
    reduced_to: 4
  - symbol: Sb # 5
    coordinates: [  0.333333333333336,  0.666666666666664,  0.091632480748106 ]
    mass: 121.760000
    reduced_to: 5
  - symbol: Sb # 6
    coordinates: [ -0.000000000000000,  0.000000000000000,  0.575034185918558 ]
    mass: 121.760000
    reduced_to: 4
  - symbol: Sb # 7
    coordinates: [  0.000000000000000, -0.000000000000000,  0.424965814081442 ]
    mass: 121.760000
    reduced_to: 5
  - symbol: Sb # 8
    coordinates: [  0.666666666666664,  0.333333333333336,  0.908367519251894 ]
    mass: 121.760000
    reduced_to: 4
  - symbol: Sb # 9
    coordinates: [  0.666666666666664,  0.333333333333336,  0.758299147414778 ]
    mass: 121.760000
    reduced_to: 5
  - symbol: Te # 10
    coordinates: [  0.666666666666664,  0.333333333333336,  0.202499702875444 ]
    mass: 127.600000
    reduced_to: 10
  - symbol: Te # 11
    coordinates: [ -0.000000000000000,  0.000000000000000,  0.130833630457892 ]
    mass: 127.600000
    reduced_to: 11
  - symbol: Te # 12
    coordinates: [  0.666666666666664,  0.333333333333336,  0.045045183380273 ]
    mass: 127.600000
    reduced_to: 12
  - symbol: Te # 13
    coordinates: [ -0.000000000000000,  0.000000000000000,  0.288288149953063 ]
    mass: 127.600000
    reduced_to: 13
  - symbol: Te # 14
    coordinates: [  0.333333333333336,  0.666666666666664,  0.535833036208773 ]
    mass: 127.600000
    reduced_to: 10
  - symbol: Te # 15
    coordinates: [  0.666666666666664,  0.333333333333336,  0.464166963791227 ]
    mass: 127.600000
    reduced_to: 11
  - symbol: Te # 16
    coordinates: [  0.333333333333336,  0.666666666666664,  0.378378516713608 ]
    mass: 127.600000
    reduced_to: 12
  - symbol: Te # 17
    coordinates: [  0.666666666666664,  0.333333333333336,  0.621621483286392 ]
    mass: 127.600000
    reduced_to: 13
  - symbol: Te # 18
    coordinates: [  0.000000000000000, -0.000000000000000,  0.869166369542108 ]
    mass: 127.600000
    reduced_to: 10
  - symbol: Te # 19
    coordinates: [  0.333333333333336,  0.666666666666664,  0.797500297124556 ]
    mass: 127.600000
    reduced_to: 11
  - symbol: Te # 20
    coordinates: [  0.000000000000000, -0.000000000000000,  0.711711850046937 ]
    mass: 127.600000
    reduced_to: 12
  - symbol: Te # 21
    coordinates: [  0.333333333333336,  0.666666666666664,  0.954954816619727 ]
    mass: 127.600000
    reduced_to: 13

supercell:
  lattice:
  - [     4.388230232541833,   -30.402550872288941,     0.000000000000001 ] # a
  - [    17.552920930167328,    -7.600637718072235,     0.000000000000000 ] # b
  - [    -0.000000000000001,     0.000000000000001,    42.503859360805826 ] # c
  points:
  - symbol: Sn # 1
    coordinates: [  0.000000000000000,  0.000000000000000,  0.000000000000000 ]
    mass: 118.710000
    reduced_to: 1
  - symbol: Sn # 2
    coordinates: [  0.100000000000000,  0.100000000000000,  0.000000000000000 ]
    mass: 118.710000
    reduced_to: 1
  - symbol: Sn # 3
    coordinates: [  0.200000000000000,  0.200000000000000,  0.000000000000000 ]
    mass: 118.710000
    reduced_to: 1
  - symbol: Sn # 4
    coordinates: [  0.300000000000000,  0.300000000000000,  0.000000000000000 ]
    mass: 118.710000
    reduced_to: 1
  - symbol: Sn # 5
    coordinates: [  0.400000000000000,  0.400000000000000,  0.000000000000000 ]
    mass: 118.710000
    reduced_to: 1
  - symbol: Sn # 6
    coordinates: [  0.500000000000000,  0.500000000000000,  0.000000000000000 ]
    mass: 118.710000
    reduced_to: 1
  - symbol: Sn # 7
    coordinates: [  0.600000000000000,  0.600000000000000,  0.000000000000000 ]
    mass: 118.710000
    reduced_to: 1
  - symbol: Sn # 8
    coordinates: [  0.700000000000000,  0.700000000000000,  0.000000000000000 ]
    mass: 118.710000
    reduced_to: 1
  - symbol: Sn # 9
    coordinates: [  0.800000000000000,  0.800000000000000,  0.000000000000000 ]
    mass: 118.710000
    reduced_to: 1
  - symbol: Sn # 10
    coordinates: [  0.900000000000000,  0.900000000000000,  0.000000000000000 ]
    mass: 118.710000
    reduced_to: 1
  - symbol: Sn # 11
    coordinates: [  0.833333333333333,  0.166666666666667,  0.000000000000000 ]
    mass: 118.710000
    reduced_to: 1
  - symbol: Sn # 12
    coordinates: [  0.933333333333333,  0.266666666666667,  0.000000000000000 ]
    mass: 118.710000
    reduced_to: 1
  - symbol: Sn # 13
    coordinates: [  0.033333333333333,  0.366666666666667,  0.000000000000000 ]
    mass: 118.710000
    reduced_to: 1
  - symbol: Sn # 14
    coordinates: [  0.133333333333333,  0.466666666666667,  0.000000000000000 ]
    mass: 118.710000
    reduced_to: 1
  - symbol: Sn # 15
    coordinates: [  0.233333333333333,  0.566666666666667,  0.000000000000000 ]
    mass: 118.710000
    reduced_to: 1
  - symbol: Sn # 16
    coordinates: [  0.333333333333333,  0.666666666666667,  0.000000000000000 ]
    mass: 118.710000
    reduced_to: 1
  - symbol: Sn # 17
    coordinates: [  0.433333333333333,  0.766666666666667,  0.000000000000000 ]
    mass: 118.710000
    reduced_to: 1
  - symbol: Sn # 18
    coordinates: [  0.533333333333333,  0.866666666666667,  0.000000000000000 ]
    mass: 118.710000
    reduced_to: 1
  - symbol: Sn # 19
    coordinates: [  0.633333333333333,  0.966666666666667,  0.000000000000000 ]
    mass: 118.710000
    reduced_to: 1
  - symbol: Sn # 20
    coordinates: [  0.733333333333333,  0.066666666666667,  0.000000000000000 ]
    mass: 118.710000
    reduced_to: 1
  - symbol: Sn # 21
    coordinates: [  0.666666666666667,  0.333333333333333,  0.000000000000000 ]
    mass: 118.710000
    reduced_to: 1
  - symbol: Sn # 22
    coordinates: [  0.766666666666667,  0.433333333333333,  0.000000000000000 ]
    mass: 118.710000
    reduced_to: 1
  - symbol: Sn # 23
    coordinates: [  0.866666666666667,  0.533333333333333,  0.000000000000000 ]
    mass: 118.710000
    reduced_to: 1
  - symbol: Sn # 24
    coordinates: [  0.966666666666667,  0.633333333333333,  0.000000000000000 ]
    mass: 118.710000
    reduced_to: 1
  - symbol: Sn # 25
    coordinates: [  0.066666666666667,  0.733333333333333,  0.000000000000000 ]
    mass: 118.710000
    reduced_to: 1
  - symbol: Sn # 26
    coordinates: [  0.166666666666667,  0.833333333333333,  0.000000000000000 ]
    mass: 118.710000
    reduced_to: 1
  - symbol: Sn # 27
    coordinates: [  0.266666666666667,  0.933333333333333,  0.000000000000000 ]
    mass: 118.710000
    reduced_to: 1
  - symbol: Sn # 28
    coordinates: [  0.366666666666667,  0.033333333333333,  0.000000000000000 ]
    mass: 118.710000
    reduced_to: 1
  - symbol: Sn # 29
    coordinates: [  0.466666666666667,  0.133333333333333,  0.000000000000000 ]
    mass: 118.710000
    reduced_to: 1
  - symbol: Sn # 30
    coordinates: [  0.566666666666667,  0.233333333333333,  0.000000000000000 ]
    mass: 118.710000
    reduced_to: 1
  - symbol: Sn # 31
    coordinates: [  0.011111111111110,  0.122222222222222,  0.333333333333336 ]
    mass: 118.710000
    reduced_to: 1
  - symbol: Sn # 32
    coordinates: [  0.111111111111110,  0.222222222222222,  0.333333333333336 ]
    mass: 118.710000
    reduced_to: 1
  - symbol: Sn # 33
    coordinates: [  0.211111111111110,  0.322222222222222,  0.333333333333336 ]
    mass: 118.710000
    reduced_to: 1
  - symbol: Sn # 34
    coordinates: [  0.311111111111111,  0.422222222222222,  0.333333333333336 ]
    mass: 118.710000
    reduced_to: 1
  - symbol: Sn # 35
    coordinates: [  0.411111111111110,  0.522222222222222,  0.333333333333336 ]
    mass: 118.710000
    reduced_to: 1
  - symbol: Sn # 36
    coordinates: [  0.511111111111111,  0.622222222222222,  0.333333333333336 ]
    mass: 118.710000
    reduced_to: 1
  - symbol: Sn # 37
    coordinates: [  0.611111111111111,  0.722222222222222,  0.333333333333336 ]
    mass: 118.710000
    reduced_to: 1
  - symbol: Sn # 38
    coordinates: [  0.711111111111111,  0.822222222222222,  0.333333333333336 ]
    mass: 118.710000
    reduced_to: 1
  - symbol: Sn # 39
    coordinates: [  0.811111111111111,  0.922222222222222,  0.333333333333336 ]
    mass: 118.710000
    reduced_to: 1
  - symbol: Sn # 40
    coordinates: [  0.911111111111111,  0.022222222222222,  0.333333333333336 ]
    mass: 118.710000
    reduced_to: 1
  - symbol: Sn # 41
    coordinates: [  0.844444444444444,  0.288888888888889,  0.333333333333336 ]
    mass: 118.710000
    reduced_to: 1
  - symbol: Sn # 42
    coordinates: [  0.944444444444444,  0.388888888888889,  0.333333333333336 ]
    mass: 118.710000
    reduced_to: 1
  - symbol: Sn # 43
    coordinates: [  0.044444444444444,  0.488888888888889,  0.333333333333336 ]
    mass: 118.710000
    reduced_to: 1
  - symbol: Sn # 44
    coordinates: [  0.144444444444444,  0.588888888888889,  0.333333333333336 ]
    mass: 118.710000
    reduced_to: 1
  - symbol: Sn # 45
    coordinates: [  0.244444444444444,  0.688888888888889,  0.333333333333336 ]
    mass: 118.710000
    reduced_to: 1
  - symbol: Sn # 46
    coordinates: [  0.344444444444444,  0.788888888888889,  0.333333333333336 ]
    mass: 118.710000
    reduced_to: 1
  - symbol: Sn # 47
    coordinates: [  0.444444444444444,  0.888888888888889,  0.333333333333336 ]
    mass: 118.710000
    reduced_to: 1
  - symbol: Sn # 48
    coordinates: [  0.544444444444444,  0.988888888888889,  0.333333333333336 ]
    mass: 118.710000
    reduced_to: 1
  - symbol: Sn # 49
    coordinates: [  0.644444444444444,  0.088888888888889,  0.333333333333336 ]
    mass: 118.710000
    reduced_to: 1
  - symbol: Sn # 50
    coordinates: [  0.744444444444444,  0.188888888888889,  0.333333333333336 ]
    mass: 118.710000
    reduced_to: 1
  - symbol: Sn # 51
    coordinates: [  0.677777777777777,  0.455555555555556,  0.333333333333336 ]
    mass: 118.710000
    reduced_to: 1
  - symbol: Sn # 52
    coordinates: [  0.777777777777777,  0.555555555555556,  0.333333333333336 ]
    mass: 118.710000
    reduced_to: 1
  - symbol: Sn # 53
    coordinates: [  0.877777777777777,  0.655555555555556,  0.333333333333336 ]
    mass: 118.710000
    reduced_to: 1
  - symbol: Sn # 54
    coordinates: [  0.977777777777777,  0.755555555555556,  0.333333333333336 ]
    mass: 118.710000
    reduced_to: 1
  - symbol: Sn # 55
    coordinates: [  0.077777777777777,  0.855555555555556,  0.333333333333336 ]
    mass: 118.710000
    reduced_to: 1
  - symbol: Sn # 56
    coordinates: [  0.177777777777777,  0.955555555555556,  0.333333333333336 ]
    mass: 118.710000
    reduced_to: 1
  - symbol: Sn # 57
    coordinates: [  0.277777777777777,  0.055555555555556,  0.333333333333336 ]
    mass: 118.710000
    reduced_to: 1
  - symbol: Sn # 58
    coordinates: [  0.377777777777777,  0.155555555555556,  0.333333333333336 ]
    mass: 118.710000
    reduced_to: 1
  - symbol: Sn # 59
    coordinates: [  0.477777777777777,  0.255555555555556,  0.333333333333336 ]
    mass: 118.710000
    reduced_to: 1
  - symbol: Sn # 60
    coordinates: [  0.577777777777777,  0.355555555555556,  0.333333333333336 ]
    mass: 118.710000
    reduced_to: 1
  - symbol: Sn # 61
    coordinates: [  0.922222222222223,  0.144444444444444,  0.666666666666664 ]
    mass: 118.710000
    reduced_to: 1
  - symbol: Sn # 62
    coordinates: [  0.022222222222223,  0.244444444444444,  0.666666666666664 ]
    mass: 118.710000
    reduced_to: 1
  - symbol: Sn # 63
    coordinates: [  0.122222222222223,  0.344444444444444,  0.666666666666664 ]
    mass: 118.710000
    reduced_to: 1
  - symbol: Sn # 64
    coordinates: [  0.222222222222223,  0.444444444444444,  0.666666666666664 ]
    mass: 118.710000
    reduced_to: 1
  - symbol: Sn # 65
    coordinates: [  0.322222222222223,  0.544444444444444,  0.666666666666664 ]
    mass: 118.710000
    reduced_to: 1
  - symbol: Sn # 66
    coordinates: [  0.422222222222223,  0.644444444444444,  0.666666666666664 ]
    mass: 118.710000
    reduced_to: 1
  - symbol: Sn # 67
    coordinates: [  0.522222222222223,  0.744444444444444,  0.666666666666664 ]
    mass: 118.710000
    reduced_to: 1
  - symbol: Sn # 68
    coordinates: [  0.622222222222223,  0.844444444444444,  0.666666666666664 ]
    mass: 118.710000
    reduced_to: 1
  - symbol: Sn # 69
    coordinates: [  0.722222222222223,  0.944444444444444,  0.666666666666664 ]
    mass: 118.710000
    reduced_to: 1
  - symbol: Sn # 70
    coordinates: [  0.822222222222223,  0.044444444444444,  0.666666666666664 ]
    mass: 118.710000
    reduced_to: 1
  - symbol: Sn # 71
    coordinates: [  0.755555555555556,  0.311111111111111,  0.666666666666664 ]
    mass: 118.710000
    reduced_to: 1
  - symbol: Sn # 72
    coordinates: [  0.855555555555556,  0.411111111111111,  0.666666666666664 ]
    mass: 118.710000
    reduced_to: 1
  - symbol: Sn # 73
    coordinates: [  0.955555555555556,  0.511111111111111,  0.666666666666664 ]
    mass: 118.710000
    reduced_to: 1
  - symbol: Sn # 74
    coordinates: [  0.055555555555556,  0.611111111111111,  0.666666666666664 ]
    mass: 118.710000
    reduced_to: 1
  - symbol: Sn # 75
    coordinates: [  0.155555555555556,  0.711111111111111,  0.666666666666664 ]
    mass: 118.710000
    reduced_to: 1
  - symbol: Sn # 76
    coordinates: [  0.255555555555556,  0.811111111111111,  0.666666666666664 ]
    mass: 118.710000
    reduced_to: 1
  - symbol: Sn # 77
    coordinates: [  0.355555555555556,  0.911111111111111,  0.666666666666664 ]
    mass: 118.710000
    reduced_to: 1
  - symbol: Sn # 78
    coordinates: [  0.455555555555556,  0.011111111111111,  0.666666666666664 ]
    mass: 118.710000
    reduced_to: 1
  - symbol: Sn # 79
    coordinates: [  0.555555555555556,  0.111111111111111,  0.666666666666664 ]
    mass: 118.710000
    reduced_to: 1
  - symbol: Sn # 80
    coordinates: [  0.655555555555556,  0.211111111111111,  0.666666666666664 ]
    mass: 118.710000
    reduced_to: 1
  - symbol: Sn # 81
    coordinates: [  0.588888888888889,  0.477777777777778,  0.666666666666664 ]
    mass: 118.710000
    reduced_to: 1
  - symbol: Sn # 82
    coordinates: [  0.688888888888890,  0.577777777777778,  0.666666666666664 ]
    mass: 118.710000
    reduced_to: 1
  - symbol: Sn # 83
    coordinates: [  0.788888888888890,  0.677777777777778,  0.666666666666664 ]
    mass: 118.710000
    reduced_to: 1
  - symbol: Sn # 84
    coordinates: [  0.888888888888890,  0.777777777777778,  0.666666666666664 ]
    mass: 118.710000
    reduced_to: 1
  - symbol: Sn # 85
    coordinates: [  0.988888888888890,  0.877777777777778,  0.666666666666664 ]
    mass: 118.710000
    reduced_to: 1
  - symbol: Sn # 86
    coordinates: [  0.088888888888890,  0.977777777777778,  0.666666666666664 ]
    mass: 118.710000
    reduced_to: 1
  - symbol: Sn # 87
    coordinates: [  0.188888888888890,  0.077777777777778,  0.666666666666664 ]
    mass: 118.710000
    reduced_to: 1
  - symbol: Sn # 88
    coordinates: [  0.288888888888890,  0.177777777777778,  0.666666666666664 ]
    mass: 118.710000
    reduced_to: 1
  - symbol: Sn # 89
    coordinates: [  0.388888888888890,  0.277777777777778,  0.666666666666664 ]
    mass: 118.710000
    reduced_to: 1
  - symbol: Sn # 90
    coordinates: [  0.488888888888890,  0.377777777777778,  0.666666666666664 ]
    mass: 118.710000
    reduced_to: 1
  - symbol: Sb # 91
    coordinates: [  0.922222222222223,  0.144444444444444,  0.241700852585222 ]
    mass: 121.760000
    reduced_to: 91
  - symbol: Sb # 92
    coordinates: [  0.022222222222223,  0.244444444444444,  0.241700852585222 ]
    mass: 121.760000
    reduced_to: 91
  - symbol: Sb # 93
    coordinates: [  0.122222222222223,  0.344444444444444,  0.241700852585222 ]
    mass: 121.760000
    reduced_to: 91
  - symbol: Sb # 94
    coordinates: [  0.222222222222223,  0.444444444444444,  0.241700852585222 ]
    mass: 121.760000
    reduced_to: 91
  - symbol: Sb # 95
    coordinates: [  0.322222222222223,  0.544444444444444,  0.241700852585222 ]
    mass: 121.760000
    reduced_to: 91
  - symbol: Sb # 96
    coordinates: [  0.422222222222223,  0.644444444444444,  0.241700852585222 ]
    mass: 121.760000
    reduced_to: 91
  - symbol: Sb # 97
    coordinates: [  0.522222222222223,  0.744444444444444,  0.241700852585222 ]
    mass: 121.760000
    reduced_to: 91
  - symbol: Sb # 98
    coordinates: [  0.622222222222223,  0.844444444444444,  0.241700852585222 ]
    mass: 121.760000
    reduced_to: 91
  - symbol: Sb # 99
    coordinates: [  0.722222222222223,  0.944444444444444,  0.241700852585222 ]
    mass: 121.760000
    reduced_to: 91
  - symbol: Sb # 100
    coordinates: [  0.822222222222223,  0.044444444444444,  0.241700852585222 ]
    mass: 121.760000
    reduced_to: 91
  - symbol: Sb # 101
    coordinates: [  0.755555555555556,  0.311111111111111,  0.241700852585222 ]
    mass: 121.760000
    reduced_to: 91
  - symbol: Sb # 102
    coordinates: [  0.855555555555556,  0.411111111111111,  0.241700852585222 ]
    mass: 121.760000
    reduced_to: 91
  - symbol: Sb # 103
    coordinates: [  0.955555555555556,  0.511111111111111,  0.241700852585222 ]
    mass: 121.760000
    reduced_to: 91
  - symbol: Sb # 104
    coordinates: [  0.055555555555556,  0.611111111111111,  0.241700852585222 ]
    mass: 121.760000
    reduced_to: 91
  - symbol: Sb # 105
    coordinates: [  0.155555555555556,  0.711111111111111,  0.241700852585222 ]
    mass: 121.760000
    reduced_to: 91
  - symbol: Sb # 106
    coordinates: [  0.255555555555556,  0.811111111111111,  0.241700852585222 ]
    mass: 121.760000
    reduced_to: 91
  - symbol: Sb # 107
    coordinates: [  0.355555555555556,  0.911111111111111,  0.241700852585222 ]
    mass: 121.760000
    reduced_to: 91
  - symbol: Sb # 108
    coordinates: [  0.455555555555556,  0.011111111111111,  0.241700852585222 ]
    mass: 121.760000
    reduced_to: 91
  - symbol: Sb # 109
    coordinates: [  0.555555555555556,  0.111111111111111,  0.241700852585222 ]
    mass: 121.760000
    reduced_to: 91
  - symbol: Sb # 110
    coordinates: [  0.655555555555556,  0.211111111111111,  0.241700852585222 ]
    mass: 121.760000
    reduced_to: 91
  - symbol: Sb # 111
    coordinates: [  0.588888888888889,  0.477777777777778,  0.241700852585222 ]
    mass: 121.760000
    reduced_to: 91
  - symbol: Sb # 112
    coordinates: [  0.688888888888890,  0.577777777777778,  0.241700852585222 ]
    mass: 121.760000
    reduced_to: 91
  - symbol: Sb # 113
    coordinates: [  0.788888888888890,  0.677777777777778,  0.241700852585222 ]
    mass: 121.760000
    reduced_to: 91
  - symbol: Sb # 114
    coordinates: [  0.888888888888890,  0.777777777777778,  0.241700852585222 ]
    mass: 121.760000
    reduced_to: 91
  - symbol: Sb # 115
    coordinates: [  0.988888888888890,  0.877777777777778,  0.241700852585222 ]
    mass: 121.760000
    reduced_to: 91
  - symbol: Sb # 116
    coordinates: [  0.088888888888890,  0.977777777777778,  0.241700852585222 ]
    mass: 121.760000
    reduced_to: 91
  - symbol: Sb # 117
    coordinates: [  0.188888888888890,  0.077777777777778,  0.241700852585222 ]
    mass: 121.760000
    reduced_to: 91
  - symbol: Sb # 118
    coordinates: [  0.288888888888890,  0.177777777777778,  0.241700852585222 ]
    mass: 121.760000
    reduced_to: 91
  - symbol: Sb # 119
    coordinates: [  0.388888888888890,  0.277777777777778,  0.241700852585222 ]
    mass: 121.760000
    reduced_to: 91
  - symbol: Sb # 120
    coordinates: [  0.488888888888890,  0.377777777777778,  0.241700852585222 ]
    mass: 121.760000
    reduced_to: 91
  - symbol: Sb # 121
    coordinates: [  0.922222222222223,  0.144444444444444,  0.091632480748106 ]
    mass: 121.760000
    reduced_to: 121
  - symbol: Sb # 122
    coordinates: [  0.022222222222223,  0.244444444444444,  0.091632480748106 ]
    mass: 121.760000
    reduced_to: 121
  - symbol: Sb # 123
    coordinates: [  0.122222222222223,  0.344444444444444,  0.091632480748106 ]
    mass: 121.760000
    reduced_to: 121
  - symbol: Sb # 124
    coordinates: [  0.222222222222223,  0.444444444444444,  0.091632480748106 ]
    mass: 121.760000
    reduced_to: 121
  - symbol: Sb # 125
    coordinates: [  0.322222222222223,  0.544444444444444,  0.091632480748106 ]
    mass: 121.760000
    reduced_to: 121
  - symbol: Sb # 126
    coordinates: [  0.422222222222223,  0.644444444444444,  0.091632480748106 ]
    mass: 121.760000
    reduced_to: 121
  - symbol: Sb # 127
    coordinates: [  0.522222222222223,  0.744444444444444,  0.091632480748106 ]
    mass: 121.760000
    reduced_to: 121
  - symbol: Sb # 128
    coordinates: [  0.622222222222223,  0.844444444444444,  0.091632480748106 ]
    mass: 121.760000
    reduced_to: 121
  - symbol: Sb # 129
    coordinates: [  0.722222222222223,  0.944444444444444,  0.091632480748106 ]
    mass: 121.760000
    reduced_to: 121
  - symbol: Sb # 130
    coordinates: [  0.822222222222223,  0.044444444444444,  0.091632480748106 ]
    mass: 121.760000
    reduced_to: 121
  - symbol: Sb # 131
    coordinates: [  0.755555555555556,  0.311111111111111,  0.091632480748106 ]
    mass: 121.760000
    reduced_to: 121
  - symbol: Sb # 132
    coordinates: [  0.855555555555556,  0.411111111111111,  0.091632480748106 ]
    mass: 121.760000
    reduced_to: 121
  - symbol: Sb # 133
    coordinates: [  0.955555555555556,  0.511111111111111,  0.091632480748106 ]
    mass: 121.760000
    reduced_to: 121
  - symbol: Sb # 134
    coordinates: [  0.055555555555556,  0.611111111111111,  0.091632480748106 ]
    mass: 121.760000
    reduced_to: 121
  - symbol: Sb # 135
    coordinates: [  0.155555555555556,  0.711111111111111,  0.091632480748106 ]
    mass: 121.760000
    reduced_to: 121
  - symbol: Sb # 136
    coordinates: [  0.255555555555556,  0.811111111111111,  0.091632480748106 ]
    mass: 121.760000
    reduced_to: 121
  - symbol: Sb # 137
    coordinates: [  0.355555555555556,  0.911111111111111,  0.091632480748106 ]
    mass: 121.760000
    reduced_to: 121
  - symbol: Sb # 138
    coordinates: [  0.455555555555556,  0.011111111111111,  0.091632480748106 ]
    mass: 121.760000
    reduced_to: 121
  - symbol: Sb # 139
    coordinates: [  0.555555555555556,  0.111111111111111,  0.091632480748106 ]
    mass: 121.760000
    reduced_to: 121
  - symbol: Sb # 140
    coordinates: [  0.655555555555556,  0.211111111111111,  0.091632480748106 ]
    mass: 121.760000
    reduced_to: 121
  - symbol: Sb # 141
    coordinates: [  0.588888888888889,  0.477777777777778,  0.091632480748106 ]
    mass: 121.760000
    reduced_to: 121
  - symbol: Sb # 142
    coordinates: [  0.688888888888890,  0.577777777777778,  0.091632480748106 ]
    mass: 121.760000
    reduced_to: 121
  - symbol: Sb # 143
    coordinates: [  0.788888888888890,  0.677777777777778,  0.091632480748106 ]
    mass: 121.760000
    reduced_to: 121
  - symbol: Sb # 144
    coordinates: [  0.888888888888890,  0.777777777777778,  0.091632480748106 ]
    mass: 121.760000
    reduced_to: 121
  - symbol: Sb # 145
    coordinates: [  0.988888888888890,  0.877777777777778,  0.091632480748106 ]
    mass: 121.760000
    reduced_to: 121
  - symbol: Sb # 146
    coordinates: [  0.088888888888890,  0.977777777777778,  0.091632480748106 ]
    mass: 121.760000
    reduced_to: 121
  - symbol: Sb # 147
    coordinates: [  0.188888888888890,  0.077777777777778,  0.091632480748106 ]
    mass: 121.760000
    reduced_to: 121
  - symbol: Sb # 148
    coordinates: [  0.288888888888890,  0.177777777777778,  0.091632480748106 ]
    mass: 121.760000
    reduced_to: 121
  - symbol: Sb # 149
    coordinates: [  0.388888888888890,  0.277777777777778,  0.091632480748106 ]
    mass: 121.760000
    reduced_to: 121
  - symbol: Sb # 150
    coordinates: [  0.488888888888890,  0.377777777777778,  0.091632480748106 ]
    mass: 121.760000
    reduced_to: 121
  - symbol: Sb # 151
    coordinates: [  0.000000000000000,  0.000000000000000,  0.575034185918558 ]
    mass: 121.760000
    reduced_to: 91
  - symbol: Sb # 152
    coordinates: [  0.100000000000000,  0.100000000000000,  0.575034185918558 ]
    mass: 121.760000
    reduced_to: 91
  - symbol: Sb # 153
    coordinates: [  0.200000000000000,  0.200000000000000,  0.575034185918558 ]
    mass: 121.760000
    reduced_to: 91
  - symbol: Sb # 154
    coordinates: [  0.300000000000000,  0.300000000000000,  0.575034185918558 ]
    mass: 121.760000
    reduced_to: 91
  - symbol: Sb # 155
    coordinates: [  0.400000000000000,  0.400000000000000,  0.575034185918558 ]
    mass: 121.760000
    reduced_to: 91
  - symbol: Sb # 156
    coordinates: [  0.500000000000000,  0.500000000000000,  0.575034185918558 ]
    mass: 121.760000
    reduced_to: 91
  - symbol: Sb # 157
    coordinates: [  0.600000000000000,  0.600000000000000,  0.575034185918558 ]
    mass: 121.760000
    reduced_to: 91
  - symbol: Sb # 158
    coordinates: [  0.700000000000000,  0.700000000000000,  0.575034185918558 ]
    mass: 121.760000
    reduced_to: 91
  - symbol: Sb # 159
    coordinates: [  0.800000000000000,  0.800000000000000,  0.575034185918558 ]
    mass: 121.760000
    reduced_to: 91
  - symbol: Sb # 160
    coordinates: [  0.900000000000000,  0.900000000000000,  0.575034185918558 ]
    mass: 121.760000
    reduced_to: 91
  - symbol: Sb # 161
    coordinates: [  0.833333333333333,  0.166666666666667,  0.575034185918558 ]
    mass: 121.760000
    reduced_to: 91
  - symbol: Sb # 162
    coordinates: [  0.933333333333333,  0.266666666666667,  0.575034185918558 ]
    mass: 121.760000
    reduced_to: 91
  - symbol: Sb # 163
    coordinates: [  0.033333333333333,  0.366666666666667,  0.575034185918558 ]
    mass: 121.760000
    reduced_to: 91
  - symbol: Sb # 164
    coordinates: [  0.133333333333333,  0.466666666666667,  0.575034185918558 ]
    mass: 121.760000
    reduced_to: 91
  - symbol: Sb # 165
    coordinates: [  0.233333333333333,  0.566666666666667,  0.575034185918558 ]
    mass: 121.760000
    reduced_to: 91
  - symbol: Sb # 166
    coordinates: [  0.333333333333333,  0.666666666666667,  0.575034185918558 ]
    mass: 121.760000
    reduced_to: 91
  - symbol: Sb # 167
    coordinates: [  0.433333333333333,  0.766666666666667,  0.575034185918558 ]
    mass: 121.760000
    reduced_to: 91
  - symbol: Sb # 168
    coordinates: [  0.533333333333333,  0.866666666666667,  0.575034185918558 ]
    mass: 121.760000
    reduced_to: 91
  - symbol: Sb # 169
    coordinates: [  0.633333333333333,  0.966666666666667,  0.575034185918558 ]
    mass: 121.760000
    reduced_to: 91
  - symbol: Sb # 170
    coordinates: [  0.733333333333333,  0.066666666666667,  0.575034185918558 ]
    mass: 121.760000
    reduced_to: 91
  - symbol: Sb # 171
    coordinates: [  0.666666666666667,  0.333333333333333,  0.575034185918558 ]
    mass: 121.760000
    reduced_to: 91
  - symbol: Sb # 172
    coordinates: [  0.766666666666667,  0.433333333333333,  0.575034185918558 ]
    mass: 121.760000
    reduced_to: 91
  - symbol: Sb # 173
    coordinates: [  0.866666666666667,  0.533333333333333,  0.575034185918558 ]
    mass: 121.760000
    reduced_to: 91
  - symbol: Sb # 174
    coordinates: [  0.966666666666667,  0.633333333333333,  0.575034185918558 ]
    mass: 121.760000
    reduced_to: 91
  - symbol: Sb # 175
    coordinates: [  0.066666666666667,  0.733333333333333,  0.575034185918558 ]
    mass: 121.760000
    reduced_to: 91
  - symbol: Sb # 176
    coordinates: [  0.166666666666667,  0.833333333333333,  0.575034185918558 ]
    mass: 121.760000
    reduced_to: 91