448  
4    

1    
  0.0057917760372597   0.0057492839575983   0.0057793653898267
   0.0030124200   -0.0241266800   -0.0240768300
   0.0174874200   -0.0014152600   -0.0013152400
   0.0145904800    0.0000108800    0.0000311100
   0.0137624600    0.0000404500    0.0000389900
   0.0137884600    0.0000399600    0.0000407200
   0.0146830200    0.0000109200    0.0000322000
   0.0173406200   -0.0013840000   -0.0012850400
   0.0128151600    0.0028174400    0.0000430200
   0.0142961500    0.0005555100    0.0000313500
   0.0146065000   -0.0000024000   -0.0000315800
   0.0135977300   -0.0000278500    0.0000150400
   0.0137454400    0.0000910700    0.0000148600
   0.0146143600   -0.0000773500   -0.0000312000
   0.0139693900    0.0003158900    0.0000314900
   0.0136808200   -0.0004126400    0.0000374300
   0.0141211500    0.0000817500    0.0000199700
   0.0145546800   -0.0000169500    0.0000017100
   0.0136741000   -0.0000062700   -0.0000041400
   0.0137073000   -0.0000063000   -0.0000033800
   0.0146411900   -0.0000189500    0.0000017600
   0.0140360300    0.0000827300    0.0000194200
   0.0146226500    0.0010140300    0.0000411300
   0.0138088800    0.0005691000    0.0000352600
   0.0144840200   -0.0000427900   -0.0000291700
   0.0137143700    0.0000773800    0.0000183200
   0.0136317600   -0.0000402600    0.0000171100
   0.0146540900    0.0000343800   -0.0000294500
   0.0139590100    0.0007942300    0.0000343400
   0.0146221000    0.0000379900    0.0012722200
   0.0140328500    0.0000313500    0.0006588700
   0.0145628300   -0.0000293900    0.0000295800
   0.0135960000    0.0000029400   -0.0000308900
   0.0137454800    0.0000023700    0.0000909000
   0.0145754100   -0.0000296200   -0.0000459400
   0.0137841900    0.0000309600    0.0004882900
   0.0135293300   -0.0000554900   -0.0000261300
   0.0142582800    0.0000204500    0.0000512400
   0.0144888200    0.0000328300    0.0000998500
   0.0137137400   -0.0000112600   -0.0000037200
   0.0137431100    0.0000285800   -0.0000400500
   0.0145561900    0.0000644300    0.0000584800
   0.0142189000    0.0000796000    0.0000498100
   0.0134530800    0.0000198300   -0.0000637600
   0.0142567000    0.0000508900    0.0000000100
   0.0145389800    0.0000153700   -0.0000230000
   0.0137149800   -0.0000110600    0.0000229400
   0.0137221100   -0.0000112900    0.0000014100
   0.0146332800    0.0000152800   -0.0000060500
   0.0141388400    0.0000505400   -0.0000200600
   0.0134996200    0.0000205400    0.0000239800
   0.0142873900   -0.0000438800   -0.0000938800
   0.0144486400   -0.0000293200   -0.0000486800
   0.0137362600   -0.0000073600   -0.0000355700
   0.0137671700   -0.0000448800    0.0000004900
   0.0145300500   -0.0000609400   -0.0000216300
   0.0141865700   -0.0001062800   -0.0000432600
   0.0136886500    0.0000419200   -0.0004549800
   0.0141313700    0.0000034900    0.0001023300
   0.0145465500    0.0000043500   -0.0000301100
   0.0136708100   -0.0000124500   -0.0000134500
   0.0137045100   -0.0000121000   -0.0000141200
   0.0146341000    0.0000036900   -0.0000306800
   0.0140429200    0.0000044200    0.0001030400
   0.0135028600   -0.0000730900    0.0000240200
   0.0143026800   -0.0000601800    0.0000485300
   0.0144882600    0.0000348300    0.0000161900
   0.0137282200    0.0000104300   -0.0000139900
   0.0137359700   -0.0000099100   -0.0000160500
   0.0145938800    0.0000604800    0.0000163900
   0.0141889600   -0.0000795200    0.0000475300
   0.0136459000   -0.0001113500   -0.0001283600
   0.0141245000   -0.0001158600   -0.0001141000
   0.0145681800   -0.0000210900   -0.0000214800
   0.0137185400   -0.0000099000   -0.0000166300
   0.0137464300   -0.0000097400   -0.0000170900
   0.0146486200   -0.0000218300   -0.0000231600
   0.0140248400   -0.0001187800   -0.0001144200
   0.0134701800   -0.0000419200    0.0000190300
   0.0142172600   -0.0000235100    0.0000433400
   0.0145640300   -0.0000081200    0.0000127800
   0.0136898800   -0.0000070500   -0.0000193600
   0.0137411000    0.0000135000   -0.0000185900
   0.0146243400   -0.0000292900    0.0000110500
   0.0141435800   -0.0000010400    0.0000423100
   0.0129241200    0.0000392700    0.0029984800
   0.0140507100    0.0000373700    0.0003147500
   0.0145205500   -0.0000243900   -0.0000777400
   0.0137218200    0.0000082500    0.0000854300
   0.0136344200    0.0000079100   -0.0000346700
   0.0146870500   -0.0000253200   -0.0000016900
   0.0141275100    0.0000352100    0.0004729800
   0.0135306600   -0.0000089900    0.0000273100
   0.0142827900   -0.0000742900   -0.0000671600
   0.0145165300   -0.0000507100   -0.0000949400
   0.0136882900    0.0000244700   -0.0000147000
   0.0137228500   -0.0000089100    0.0000221400
   0.0146063900   -0.0000881000   -0.0000525300
   0.0141970200   -0.0000698900   -0.0000659400
   0.0134723400    0.0000175600   -0.0000813000
   0.0143003800    0.0000481800   -0.0000854600
   0.0144977000    0.0000127700    0.0000468400
   0.0137071500   -0.0000136700   -0.0000172100
   0.0137609100   -0.0000146900    0.0000031700
   0.0145696500    0.0000126000    0.0000306600
   0.0142277800    0.0000485400   -0.0000646600
   0.0135020500   -0.0000285600   -0.0000220800
   0.0143112100    0.0000482300    0.0000807500
   0.0144782600    0.0000502600    0.0000545600
   0.0137122600   -0.0000436000    0.0000193800
   0.0137421500   -0.0000118200   -0.0000158200
   0.0145808400    0.0000897500    0.0000270200
   0.0141679500    0.0000457400    0.0000275900
   0.0139377800   -0.0001623600   -0.0006849300
   0.0144527000   -0.0000007600    0.0000062600
   0.0141883300   -0.0000313200   -0.0000348000
   0.0135415600   -0.0000090700    0.0000044700
   0.0142997900   -0.0000232500   -0.0000334700
   0.0143936500    0.0000019500    0.0000116900
   0.0139881600   -0.0006517600   -0.0001267500
   0.0136777600   -0.0000212000   -0.0000143800
   0.0145795300   -0.0000159000   -0.0000376200
   0.0142554200    0.0000379500    0.0000279000
   0.0134356000    0.0000119500    0.0000023100
   0.0142899200    0.0000028500   -0.0000072700
   0.0146597200    0.0000948800    0.0000019600
   0.0136064000   -0.0000922000    0.0000052900
   0.0135990700   -0.0001129400   -0.0000409900
   0.0146817000    0.0001024800   -0.0000302200
   0.0141831300    0.0000389000    0.0000379800
   0.0134501900   -0.0000052600    0.0000088900
   0.0143132100    0.0000751500    0.0000222900
   0.0145665800   -0.0000066500    0.0000275200
   0.0136677100   -0.0000402400   -0.0000250400
   0.0132935400    0.0008333100    0.0006336900
   0.0144526200    0.0000148000    0.0000227900
   0.0142108000    0.0000217100    0.0000348700
   0.0135173600    0.0000380600    0.0000326300
   0.0143205200    0.0000119100    0.0000415200
   0.0145235400    0.0000120200    0.0001585900
   0.0143023000    0.0013153400    0.0011713200
   0.0143286300    0.0011685100    0.0013596200
   0.0146008600    0.0001444500    0.0000140800
   0.0142035700    0.0000436000    0.0000213300
   0.0135240400    0.0000195600    0.0000460500
   0.0143054400    0.0000421400    0.0000228200
   0.0143958600    0.0000181200    0.0000081800
   0.0132660700    0.0006742600    0.0007958200
   0.0137191000   -0.0000492100   -0.0000496300
   0.0146343100    0.0000120000    0.0000152000
   0.0142332000    0.0000685900    0.0000125300
   0.0134422500    0.0000202400    0.0000010700
   0.0143134400    0.0000139700    0.0000453300
   0.0146092600    0.0001026600   -0.0000243800
   0.0136075400   -0.0001169500   -0.0000667800
   0.0136400000   -0.0000824600   -0.0000190400
   0.0147358600    0.0000746100    0.0000093700
   0.0141602300    0.0000125100    0.0000022400
   0.0134575200   -0.0000094100   -0.0000042800
   0.0143364600    0.0000650700    0.0000191100
   0.0145140000   -0.0000133200   -0.0000486000
   0.0136685800   -0.0000133100   -0.0000350200
   0.0136734400   -0.0004822500    0.0000321000
   0.0146053700   -0.0001316000    0.0000001600
   0.0142268600   -0.0000558800   -0.0000411400
   0.0135009800    0.0000074900    0.0000207500
   0.0143278500   -0.0000563600   -0.0000489700
   0.0145238700   -0.0000064600   -0.0001338800
   0.0135884900    0.0000022100   -0.0005171500
   0.0137012300   -0.0000378500   -0.0000998200
   0.0146244300    0.0000276700   -0.0000042600
   0.0142097600    0.0000184600    0.0000674600
   0.0134408100    0.0000132600   -0.0000007200
   0.0142934700    0.0000303400    0.0000371300
   0.0145926400   -0.0000193800    0.0000839000
   0.0136081600   -0.0000919900   -0.0001179200
   0.0137999600   -0.0000267200    0.0000073100
   0.0145842900   -0.0000075300   -0.0000266200
   0.0141496400    0.0000136100    0.0000364200
   0.0134900500    0.0000297800    0.0000025100
   0.0142694500    0.0000398600    0.0000358500
   0.0145774000    0.0000123500    0.0000250600
   0.0136391400   -0.0000711600   -0.0000798200
   0.0137215400    0.0000355100    0.0000847400
   0.0146132600    0.0000015300   -0.0000164700
   0.0141422500   -0.0000208900   -0.0000409400
   0.0135114700    0.0000058200    0.0000059000
   0.0142381500   -0.0000459700   -0.0000236600
   0.0145419900   -0.0000179800    0.0000059000
   0.0136802000    0.0000812500    0.0000261700
   0.0136782900   -0.0000409400   -0.0000188400
   0.0145980900   -0.0000597100   -0.0000197200
   0.0142270500    0.0000087300    0.0000606600
   0.0134517800   -0.0000195700   -0.0000136200
   0.0142695900   -0.0000042800    0.0000071800
   0.0146492700   -0.0000132900    0.0000569400
   0.0136529600    0.0000123700   -0.0000734100
   0.0136563500    0.0000070500   -0.0000415500
   0.0146962900    0.0000031600    0.0000757200
   0.0141911300   -0.0000079700   -0.0000015600
   0.0134400000    0.0000025200   -0.0000082000
   0.0143576100    0.0000281900    0.0000293300
   0.0145032400   -0.0000278900   -0.0000139200
   0.0136395700   -0.0000087900   -0.0000229600
   0.0137377100    0.0000773600    0.0000051000
   0.0146207900   -0.0000279400    0.0000206600
   0.0141724800   -0.0000478400   -0.0000524100
   0.0134785700    0.0000306100    0.0000190600
   0.0142841000   -0.0000398000   -0.0000506600
   0.0145459700    0.0000209800   -0.0000318200
   0.0137262600    0.0000030100    0.0000916900
   0.0136579600   -0.0000729600   -0.0000742300
   0.0146519900    0.0000175800    0.0000079300
   0.0141690300    0.0000364100    0.0000226600
   0.0134947300    0.0000000400    0.0000122500
   0.0142484200    0.0000306600    0.0000059900
   0.0145125200   -0.0000289500   -0.0000164500
   0.0137658400    0.0000020100   -0.0000164100
   0.0136341800   -0.0000831400   -0.0001266600
   0.0146670500   -0.0000299300    0.0000863200
   0.0142092900    0.0000389800   -0.0000003200
   0.0134499200   -0.0000042200   -0.0000008100
   0.0143350100    0.0000032900    0.0000538200
   0.0145622800    0.0000027100    0.0000110400
   0.0136858300   -0.0000658800   -0.0000709100
  -0.0147327200   -0.0002508400   -0.0012417000
  -0.0137472800   -0.0000075200   -0.0000572600
  -0.0141383800    0.0000778300   -0.0002599400
  -0.0141296700    0.0000273700   -0.0000578600
  -0.0144267200    0.0000717500    0.0000321800
  -0.0132647300    0.0001371200   -0.0003672500
  -0.0097619100   -0.0007432700    0.0136303200
  -0.0142429400   -0.0006301000   -0.0000968800
  -0.0141088800    0.0000406700    0.0001845200
  -0.0140504100   -0.0000383500    0.0000476700
  -0.0140942300   -0.0000742900   -0.0000229000
  -0.0141556200   -0.0000250600    0.0001102800
  -0.0138926300   -0.0004002900    0.0000217000
  -0.0141975400   -0.0005149200   -0.0001927700
  -0.0140272000    0.0002852300    0.0000210800
  -0.0141303400   -0.0000176400   -0.0000215800
  -0.0140769800   -0.0000292400    0.0000685500
  -0.0140032900    0.0000196300    0.0000065600
  -0.0141812300    0.0000034900   -0.0000235000
  -0.0139791800    0.0000599300    0.0000570600
  -0.0140667500    0.0003134200    0.0002102800
  -0.0138310500    0.0000367000    0.0000966900
  -0.0140659600   -0.0001655500   -0.0000629200
  -0.0140603300   -0.0000492900   -0.0000598200
  -0.0141008200   -0.0000673300    0.0000094800
  -0.0141352000   -0.0001554600   -0.0000957400
  -0.0138782600    0.0000802300    0.0001100300
  -0.0142147800    0.0001531000    0.0001797200
  -0.0122004500   -0.0002504400    0.0026355200
  -0.0137521400   -0.0000078000    0.0000669500
  -0.0142245200    0.0000783600    0.0000730000
  -0.0140988800    0.0000278700   -0.0001614100
  -0.0138748800    0.0000706400   -0.0000299900
  -0.0149680100    0.0001389500    0.0001648500
  -0.0179900000   -0.0007961300    0.0048949500
  -0.0140751200   -0.0002595600    0.0003388900
  -0.0141594200    0.0000215200   -0.0001052500
  -0.0140167800   -0.0000878900   -0.0000365000
  -0.0141175500   -0.0001035800    0.0000639800
  -0.0141496700   -0.0000683800   -0.0000867000
  -0.0139366700   -0.0002035100   -0.0000726300
  -0.0141836200    0.0001107600    0.0002911000
  -0.0139620700    0.0002834700    0.0001364500
  -0.0140600400   -0.0000176500    0.0000344600
  -0.0141047100   -0.0000290900    0.0000287300
  -0.0140179500    0.0000199700    0.0000065700
  -0.0141454900    0.0000035300    0.0000584300
  -0.0140182900    0.0000609900   -0.0000611500
  -0.0141309600    0.0003119500    0.0001336700
  -0.0136663400   -0.0003261600    0.0001392400
  -0.0141165500   -0.0001436100    0.0001421800
  -0.0140258800    0.0000005700    0.0000716400
  -0.0141246100   -0.0000383400    0.0000317000
  -0.0141300200   -0.0001114500    0.0001214400
  -0.0139207400   -0.0001166700   -0.0001625500
  -0.0142020700   -0.0004662700   -0.0000851700
  -0.0140264000    0.0001489000   -0.0003081500
  -0.0141097100    0.0000601400   -0.0000146400
  -0.0140290200   -0.0000009500    0.0001348400
  -0.0140909800    0.0000142300   -0.0000990000
  -0.0140922600   -0.0000058600    0.0000146100
  -0.0138103100    0.0000625900   -0.0002536700
  -0.0143530600    0.0002358100    0.0009563200
  -0.0140577500    0.0000420700    0.0000315000
  -0.0140602500    0.0000148600   -0.0000245400
  -0.0140785700   -0.0000098700   -0.0000114400
  -0.0140586200   -0.0000747400    0.0000252600
  -0.0141148100   -0.0000115500   -0.0000139400
  -0.0140902900   -0.0000440500   -0.0000631500
  -0.0141052300   -0.0000363700    0.0000379300
  -0.0140863500    0.0000365100    0.0000445700
  -0.0140460400   -0.0000143900    0.0000088100
  -0.0140865000   -0.0000044800    0.0000063500
  -0.0140604500    0.0000128100   -0.0000360400
  -0.0140586600    0.0000002900    0.0000269900
  -0.0140984100   -0.0000193300    0.0000361300
  -0.0140525300    0.0000000700    0.0001808600
  -0.0140788400   -0.0001394900   -0.0000564900
  -0.0140168800    0.0000107600   -0.0000148500
  -0.0140631300   -0.0000303000    0.0000039500
  -0.0140557500    0.0000187900   -0.0000296700
  -0.0140936100    0.0000195800   -0.0000365600
  -0.0140551800    0.0000128600    0.0000122800
  -0.0140268200   -0.0000054100   -0.0001843600
  -0.0137310100    0.0001463500   -0.0001251900
  -0.0141211600    0.0000605800    0.0000423400
  -0.0141016000   -0.0000002900    0.0000290500
  -0.0139858900    0.0000155100    0.0000565700
  -0.0141929200   -0.0000044600   -0.0000304700
  -0.0140310600    0.0000611500   -0.0002422400
  -0.0142446600    0.0002325400    0.0009685900
  -0.0140085900   -0.0001524800   -0.0001447100
  -0.0140713100    0.0000652100   -0.0000508100
  -0.0141058800    0.0000153400    0.0000197100
  -0.0140521800   -0.0000596600   -0.0000291100
  -0.0141467700    0.0000694400   -0.0000395700
  -0.0140722900   -0.0000902500   -0.0000100500
  -0.0141509200   -0.0000359600   -0.0001524800
  -0.0141503100    0.0000359300    0.0000423900
  -0.0140525300   -0.0000150000    0.0000286600
  -0.0140675700   -0.0000044500   -0.0000107900
  -0.0140706100    0.0000128900   -0.0000086300
  -0.0140906300    0.0000003500   -0.0000431200
  -0.0140776800   -0.0000201300    0.0001417300
  -0.0140236200    0.0000005400   -0.0000170600
  -0.0140301800    0.0000553800   -0.0000561900
  -0.0140281200   -0.0000396300   -0.0000610200
  -0.0140897000   -0.0000569800    0.0000038100
  -0.0140487700    0.0000026700    0.0000258000
  -0.0141258200   -0.0000625400   -0.0000189400
  -0.0140373200    0.0000591700   -0.0000858200
  -0.0140731900   -0.0000060000    0.0000698400
  -0.0093502000    0.0140926000   -0.0007913000
  -0.0132822700   -0.0003681000    0.0001230800
  -0.0144374600    0.0000700700    0.0000777100
  -0.0141235900   -0.0001039300    0.0000090500
  -0.0141455000   -0.0002438300    0.0000853700
  -0.0137461300   -0.0000328200   -0.0000253300
  -0.0148573000   -0.0013204600   -0.0002813300
  -0.0141838100    0.0010187100    0.0001789200
  -0.0140257200   -0.0002155100    0.0000557500
  -0.0142232100   -0.0000375600   -0.0000020600
  -0.0139990100    0.0000611800    0.0000219300
  -0.0140795200    0.0000488200   -0.0000060100
  -0.0141153300    0.0000263900    0.0000649700
  -0.0137634700   -0.0001083500    0.0001131800
  -0.0143359300    0.0009344200    0.0001761900
  -0.0138209100   -0.0002407000    0.0000539600
  -0.0140830900    0.0000098300   -0.0000007500
  -0.0141233200   -0.0001037400    0.0000227800
  -0.0140176600    0.0001328400   -0.0000055500
  -0.0141113900   -0.0000194000    0.0000655500
  -0.0140128100   -0.0002408600    0.0001109500
  -0.0179232500    0.0045936300   -0.0007373600
  -0.0149099700    0.0001233000    0.0001208800
  -0.0139318700   -0.0000230700    0.0000785800
  -0.0140772600   -0.0001601000    0.0000091900
  -0.0142237900    0.0000774600    0.0000856100
  -0.0137337800    0.0000201100   -0.0000238000
  -0.0122547200    0.0027352600   -0.0002806500
  -0.0142256100    0.0002634400    0.0002125500
  -0.0138620200    0.0000979300    0.0000961700
  -0.0141403500   -0.0000950700   -0.0001293600
  -0.0141078600    0.0000307600   -0.0000596800
  -0.0140508600   -0.0000585100   -0.0000388500
  -0.0140718700   -0.0000785800   -0.0001561200
  -0.0138104800    0.0001312300    0.0000366300
  -0.0140863300    0.0000679900   -0.0000078300
  -0.0140051100   -0.0000796100    0.0000560500
  -0.0141562800   -0.0000156900   -0.0000565400
  -0.0140483900    0.0000312800    0.0000091100
  -0.0140853100    0.0000228100   -0.0000397900
  -0.0140305400   -0.0000488900   -0.0000424500
  -0.0140379200   -0.0000533300    0.0000411100
  -0.0140261800   -0.0001578800    0.0000235000
  -0.0140188100    0.0000067900    0.0000116800
  -0.0141295900   -0.0000258100    0.0000213500
  -0.0140538800   -0.0000265500    0.0000233200
  -0.0140593300   -0.0000026300   -0.0000132200
  -0.0140159900   -0.0000123000    0.0000019800
  -0.0140941300   -0.0000568600   -0.0001470700
  -0.0142364300   -0.0001204500   -0.0004682700
  -0.0138799200   -0.0001152800   -0.0001015900
  -0.0141433500    0.0000982300   -0.0000868500
  -0.0141324100    0.0000226300   -0.0000272000
  -0.0140139900    0.0000705600    0.0000121900
  -0.0141243700    0.0001394100   -0.0001411500
  -0.0136336400    0.0001467800   -0.0003709800
  -0.0141140300    0.0001903300    0.0003895900
  -0.0139183500    0.0000454600    0.0000722000
  -0.0142179300   -0.0000185400   -0.0000063600
  -0.0140130100    0.0000063700    0.0000193900
  -0.0140530000    0.0000826900   -0.0000332900
  -0.0141440900   -0.0000402700   -0.0000138200
  -0.0140111700    0.0000439700    0.0003592400
  -0.0140297100   -0.0000510500    0.0000135000
  -0.0140645900    0.0001414500   -0.0000251400
  -0.0140995800   -0.0000268900   -0.0000048600
  -0.0140782100   -0.0000017300    0.0000089500
  -0.0140629500   -0.0000042300   -0.0000140500
  -0.0140441900    0.0000434800   -0.0000222000
  -0.0141633000    0.0000301700    0.0000482600
  -0.0140468200    0.0001505700    0.0000144200
  -0.0140739500    0.0000370600   -0.0000262600
  -0.0140767700    0.0000207700   -0.0000050300
  -0.0140605100   -0.0000342900    0.0000090900
  -0.0140907000    0.0000089000   -0.0000141500
  -0.0140380900    0.0000057900   -0.0000226900
  -0.0140956600    0.0000437400    0.0000481800
  -0.0141671800    0.0001525000    0.0003918900
  -0.0139736900   -0.0000672500    0.0000710800
  -0.0141774800    0.0000421400   -0.0000073200
  -0.0140288200    0.0000081500    0.0000184900
  -0.0140893000    0.0000165800   -0.0000336500
  -0.0140679200    0.0000324300   -0.0000139500
  -0.0139255500    0.0001254600    0.0003612400
  -0.0141821800   -0.0001560600   -0.0006129500
  -0.0139016900    0.0000334400   -0.0003851400
  -0.0141599200    0.0000903300   -0.0000273100
  -0.0141106000   -0.0000103500   -0.0000707900
  -0.0140384900    0.0000505600   -0.0000420800
  -0.0141176600    0.0001666500    0.0000694200
  -0.0142260300   -0.0000977800   -0.0006248100
  -0.0141555700   -0.0001309800   -0.0000330800
  -0.0140481500   -0.0000098100   -0.0000949200
  -0.0141729400   -0.0000375100    0.0000618300
  -0.0140511300   -0.0000185400   -0.0000636700
  -0.0141022300    0.0000289600    0.0000138800
  -0.0140726200   -0.0000478000    0.0000549400
  -0.0140101000   -0.0001325300   -0.0001497000
  -0.0140950600    0.0000411700   -0.0000653700
  -0.0140610800   -0.0000623500   -0.0000502700
  -0.0141459200   -0.0000049400   -0.0000168600
  -0.0140563600    0.0000233000   -0.0000789600
  -0.0140766000   -0.0000101600   -0.0000138800
  -0.0140584200   -0.0000149000    0.0000102800
  -0.0140658600    0.0000222600    0.0000377500
  -0.0141943400    0.0002949500    0.0000599000
  -0.0139184700   -0.0000533500   -0.0001864700
  -0.0141634200   -0.0000861900   -0.0000693700
  -0.0141354400    0.0000636100   -0.0001026400
  -0.0140019800   -0.0000377000   -0.0000938700
  -0.0141696500   -0.0001053400    0.0000508900
  -0.0140524000    0.0003701900   -0.0002254500

1    
 -0.0057917760372597  -0.0057492839575983  -0.0057793653898267
   0.0243025700    0.0237855700    0.0247251000
   0.0110659400    0.0013824000    0.0012744600
   0.0144657900   -0.0000207100   -0.0000359200
   0.0136325800   -0.0000489900   -0.0000450700
   0.0136619800   -0.0000491600   -0.0000437400
   0.0145645700   -0.0000201600   -0.0000324400
   0.0109036300    0.0014195400    0.0013082600
   0.0142262300   -0.0028290800   -0.0000422900
   0.0141919300   -0.0005530100   -0.0000341800
   0.0144568700    0.0000037300    0.0000279000
   0.0137969700    0.0000333900   -0.0000197400
   0.0137158000   -0.0000800800   -0.0000185800
   0.0146228300    0.0000868200    0.0000282600
   0.0143358300   -0.0003181000   -0.0000357300
   0.0133493800    0.0004140600   -0.0000361400
   0.0143603800   -0.0000785300   -0.0000172600
   0.0145133000    0.0000212600   -0.0000006000
   0.0137281300    0.0000093200    0.0000057300
   0.0137630100    0.0000086800    0.0000077000
   0.0145981300    0.0000209200   -0.0000003100
   0.0142740700   -0.0000786900   -0.0000166300
   0.0124198800   -0.0009904000   -0.0000432800
   0.0146752900   -0.0005645200   -0.0000302100
   0.0145766600    0.0000434700    0.0000313300
   0.0136784200   -0.0000787300   -0.0000136400
   0.0138319400    0.0000371100   -0.0000148600
   0.0145902200   -0.0000368900    0.0000320600
   0.0143538400   -0.0008140800   -0.0000303500
   0.0123994700   -0.0000450900   -0.0013022600
   0.0144461300   -0.0000474600   -0.0006489900
   0.0144996400    0.0000145300   -0.0000352200
   0.0137969700   -0.0000200600    0.0000274000
   0.0137138100   -0.0000196500   -0.0000908400
   0.0146706200    0.0000133600    0.0000417800
   0.0145291600   -0.0000455400   -0.0004944300
   0.0135022700    0.0000593600    0.0000192500
   0.0142271500   -0.0000151000   -0.0000588300
   0.0145799900   -0.0000214400   -0.0001040800
   0.0136856500    0.0000249400    0.0000021700
   0.0137174300   -0.0000073400    0.0000389100
   0.0146814600   -0.0000505500   -0.0000573300
   0.0140831100   -0.0000712600   -0.0000531800
   0.0135724100   -0.0000131400    0.0000678400
   0.0142320800   -0.0000418000    0.0000004500
   0.0145343600   -0.0000074200    0.0000270800
   0.0136934200    0.0000201100   -0.0000198300
   0.0137469700    0.0000170000    0.0000020400
   0.0146005800   -0.0000076500    0.0000124000
   0.0141583500   -0.0000431700    0.0000224800
   0.0135298500   -0.0000229200   -0.0000254600
   0.0141972400    0.0000427800    0.0000946800
   0.0146152100    0.0000243300    0.0000481300
   0.0136624200   -0.0000017900    0.0000369400
   0.0137018100    0.0000358800    0.0000042700
   0.0147135900    0.0000521200    0.0000243400
   0.0141138000    0.0000966400    0.0000437700
   0.0133386900   -0.0000523800    0.0004538200
   0.0143453300   -0.0000138800   -0.0001049200
   0.0145156500   -0.0000156900    0.0000307900
   0.0137234100   -0.0000022100    0.0000140900
   0.0137649400   -0.0000010400    0.0000157800
   0.0146120800   -0.0000190800    0.0000309800
   0.0142609500   -0.0000133600   -0.0001014200
   0.0135181300    0.0000815900   -0.0000207600
   0.0141779400    0.0000701200   -0.0000439900
   0.0145794800   -0.0000222400   -0.0000141300
   0.0136768600    0.0000064800    0.0000189100
   0.0137324700    0.0000298500    0.0000186300
   0.0146483300   -0.0000381300   -0.0000125600
   0.0141107800    0.0000939300   -0.0000442500
   0.0133713200    0.0001189000    0.0001286900
   0.0143626100    0.0001229300    0.0001102000
   0.0145029800    0.0000276300    0.0000167200
   0.0136926900    0.0000141100    0.0000103200
   0.0137266400    0.0000128500    0.0000122500
   0.0145898800    0.0000259200    0.0000166800
   0.0142673100    0.0001212600    0.0001114200
   0.0135551000    0.0000350600   -0.0000266300
   0.0142665800    0.0000140000   -0.0000499100
   0.0145044600   -0.0000032000   -0.0000195800
   0.0137178200   -0.0000025900    0.0000118700
   0.0137323100   -0.0000244200    0.0000132100
   0.0146179600    0.0000194000   -0.0000177200
   0.0141544200   -0.0000058500   -0.0000514100
   0.0140972100   -0.0000440600   -0.0029817500
   0.0144256500   -0.0000403400   -0.0003037000
   0.0145416700    0.0000164800    0.0000831200
   0.0136760500   -0.0000147500   -0.0000800900
   0.0138277300   -0.0000134200    0.0000378200
   0.0145593900    0.0000170200    0.0000039400
   0.0141780600   -0.0000403700   -0.0004721800
   0.0134979600    0.0000093900   -0.0000200100
   0.0142004100    0.0000770600    0.0000744400
   0.0145499900    0.0000571100    0.0000984300
   0.0137119700   -0.0000175100    0.0000158000
   0.0137431500    0.0000178400   -0.0000225700
   0.0146343900    0.0000997800    0.0000509100
   0.0141035700    0.0000758500    0.0000666300
   0.0135514000   -0.0000196400    0.0000802700
   0.0141844300   -0.0000467200    0.0000833900
   0.0145695100   -0.0000091700   -0.0000475000
   0.0136986900    0.0000149200    0.0000134900
   0.0137108300    0.0000128400   -0.0000103700
   0.0146734400   -0.0000120500   -0.0000362900
   0.0140711400   -0.0000468500    0.0000604600
   0.0135275500    0.0000249000    0.0000237100
   0.0141720800   -0.0000523300   -0.0000774000
   0.0145851700   -0.0000566500   -0.0000519500
   0.0136867000    0.0000387200   -0.0000185600
   0.0137254100    0.0000050100    0.0000141000
   0.0146669100   -0.0000962900   -0.0000321000
   0.0141383900   -0.0000479300   -0.0000290300
   0.0135153200    0.0001569300    0.0006829800
   0.0147722200   -0.0000019000   -0.0000037800
   0.0140962900    0.0000281500    0.0000334900
   0.0134807400    0.0000077100   -0.0000038700
   0.0141963200    0.0000209200    0.0000345200
   0.0146955800   -0.0000042700   -0.0000129100
   0.0134331800    0.0006532400    0.0001313400
   0.0137769200    0.0000223800    0.0000168000
   0.0146420200    0.0000175600    0.0000375000
   0.0140322900   -0.0000336500   -0.0000284700
   0.0135933500   -0.0000047900   -0.0000032100
   0.0142084800    0.0000043100    0.0000054100
   0.0144281100   -0.0000879800   -0.0000044500
   0.0138074300    0.0000931900   -0.0000009500
   0.0138572900    0.0001120700    0.0000431700
   0.0145402200   -0.0000993400    0.0000327900
   0.0141026200   -0.0000415600   -0.0000350000
   0.0135812600    0.0000015700   -0.0000053300
   0.0141895900   -0.0000794000   -0.0000214100
   0.0145202000    0.0000065100   -0.0000310900
   0.0137480600    0.0000425100    0.0000252100
   0.0141718700   -0.0008384200   -0.0006337000
   0.0147658000   -0.0000187200   -0.0000163700
   0.0140716800   -0.0000237200   -0.0000297200
   0.0135044900   -0.0000409200   -0.0000308500
   0.0141789000   -0.0000183000   -0.0000379300
   0.0145697800   -0.0000134700   -0.0001558600
   0.0131089800   -0.0013410500   -0.0011945700
   0.0131394700   -0.0011459600   -0.0013449600
   0.0146247100   -0.0001459600   -0.0000257200
   0.0140794600   -0.0000457000   -0.0000305900
   0.0134964700   -0.0000194800   -0.0000518900
   0.0141884900   -0.0000452500   -0.0000278100
   0.0146951200   -0.0000205800   -0.0000149300
   0.0141468100   -0.0006718300   -0.0007962700
   0.0137422800    0.0000561900    0.0000421300
   0.0145917700   -0.0000056200   -0.0000163900
   0.0140565700   -0.0000579500   -0.0000106300
   0.0135862000   -0.0000059200   -0.0000011200
   0.0141814600   -0.0000006900   -0.0000453400
   0.0144736400   -0.0000911100    0.0000241300
   0.0138059100    0.0001262500    0.0000628900
   0.0138194000    0.0000847600    0.0000208400
   0.0144906000   -0.0000725600   -0.0000063900
   0.0141264900   -0.0000103500   -0.0000008200
   0.0135735500    0.0000066700    0.0000086500
   0.0141610100   -0.0000685000   -0.0000119600
   0.0145655800    0.0000134600    0.0000549800
   0.0137459600    0.0000165000    0.0000395900
   0.0137817300    0.0004810700   -0.0000352800
   0.0146218900    0.0001227700   -0.0000044100
   0.0140541900    0.0000435400    0.0000402400
   0.0135200600   -0.0000193200   -0.0000223800
   0.0141714400    0.0000425000    0.0000504000
   0.0145671800   -0.0000036700    0.0001347900
   0.0138312600   -0.0000058400    0.0005143900
   0.0137542200    0.0000344900    0.0000938500
   0.0145996200   -0.0000308700    0.0000016200
   0.0140757100   -0.0000195300   -0.0000675800
   0.0135869500   -0.0000125800   -0.0000000400
   0.0142091800   -0.0000306200   -0.0000344300