phonopy:
  version: "2.27.0"
  frequency_unit_conversion_factor: 15.633302
  symmetry_tolerance: 1.00000e-04

space_group:
  type: "Pnma"
  number: 62
  Hall_symbol: "-P 2ac 2n"

primitive_matrix:
- [  0.000000000000000,  1.000000000000000,  0.000000000000000 ]
- [  0.000000000000000,  0.000000000000000,  1.000000000000000 ]
- [  1.000000000000000,  0.000000000000000,  0.000000000000000 ]

supercell_matrix:
- [   5,   0,   0 ]
- [   0,   5,   0 ]
- [   0,   0,   2 ]

primitive_cell:
  lattice:
  - [    -0.000000000000001,    -0.000000000000008,    11.632048553825436 ] # a
  - [     3.889485224403221,    -0.000000000000000,     0.000000000000000 ] # b
  - [     0.000000000000000,     4.684268399955826,    -0.000000000000007 ] # c
  points:
  - symbol: Sn # 1
    coordinates: [  0.623631913071270,  0.249999999999997,  0.369379467779806 ]
    mass: 118.710000
  - symbol: Sn # 2
    coordinates: [  0.376368086928731,  0.749999999999997,  0.630620532220188 ]
    mass: 118.710000
  - symbol: Sn # 3
    coordinates: [  0.876368086928729,  0.749999999999997,  0.869379467779805 ]
    mass: 118.710000
  - symbol: Sn # 4
    coordinates: [  0.123631913071270,  0.249999999999997,  0.130620532220188 ]
    mass: 118.710000
  - symbol: S  # 5
    coordinates: [  0.346843670832454,  0.249999999999997,  0.009427448260198 ]
    mass: 32.065000
  - symbol: S  # 6
    coordinates: [  0.653156329167546,  0.749999999999997,  0.990572551739795 ]
    mass: 32.065000
  - symbol: S  # 7
    coordinates: [  0.153156329167545,  0.749999999999997,  0.509427448260198 ]
    mass: 32.065000
  - symbol: S  # 8
    coordinates: [  0.846843670832454,  0.249999999999997,  0.490572551739795 ]
    mass: 32.065000
  reciprocal_lattice: # without 2pi
  - [    -0.000000000000000,     0.000000000000000,     0.085969379802075 ] # a*
  - [     0.257103432023819,    -0.000000000000000,     0.000000000000000 ] # b*
  - [     0.000000000000000,     0.213480508505753,     0.000000000000000 ] # c*

unit_cell:
  lattice:
  - [     3.889485224403221,    -0.000000000000000,     0.000000000000000 ] # a
  - [     0.000000000000000,     4.684268399955824,    -0.000000000000007 ] # b
  - [    -0.000000000000001,    -0.000000000000008,    11.632048553825435 ] # c
  points:
  - symbol: Sn # 1
    coordinates: [  0.249999999999997,  0.369379467779806,  0.623631913071270 ]
    mass: 118.710000
    reduced_to: 1
  - symbol: Sn # 2
    coordinates: [  0.749999999999997,  0.630620532220188,  0.376368086928731 ]
    mass: 118.710000
    reduced_to: 2
  - symbol: Sn # 3
    coordinates: [  0.749999999999997,  0.869379467779805,  0.876368086928730 ]
    mass: 118.710000
    reduced_to: 3
  - symbol: Sn # 4
    coordinates: [  0.249999999999997,  0.130620532220188,  0.123631913071270 ]
    mass: 118.710000
    reduced_to: 4
  - symbol: S  # 5
    coordinates: [  0.249999999999997,  0.009427448260198,  0.346843670832454 ]
    mass: 32.065000
    reduced_to: 5
  - symbol: S  # 6
    coordinates: [  0.749999999999997,  0.990572551739795,  0.653156329167546 ]
    mass: 32.065000
    reduced_to: 6
  - symbol: S  # 7
    coordinates: [  0.749999999999997,  0.509427448260198,  0.153156329167545 ]
    mass: 32.065000
    reduced_to: 7
  - symbol: S  # 8
    coordinates: [  0.249999999999997,  0.490572551739795,  0.846843670832454 ]
    mass: 32.065000
    reduced_to: 8

supercell:
  lattice:
  - [    19.447426122016104,    -0.000000000000000,     0.000000000000001 ] # a
  - [     0.000000000000001,    23.421341999779123,    -0.000000000000033 ] # b
  - [    -0.000000000000001,    -0.000000000000016,    23.264097107650869 ] # c
  points:
  - symbol: Sn # 1
    coordinates: [  0.049999999999999,  0.073875893555961,  0.311815956535635 ]
    mass: 118.710000
    reduced_to: 1
  - symbol: Sn # 2
    coordinates: [  0.249999999999999,  0.073875893555961,  0.311815956535635 ]
    mass: 118.710000
    reduced_to: 1
  - symbol: Sn # 3
    coordinates: [  0.449999999999999,  0.073875893555961,  0.311815956535635 ]
    mass: 118.710000
    reduced_to: 1
  - symbol: Sn # 4
    coordinates: [  0.649999999999999,  0.073875893555961,  0.311815956535635 ]
    mass: 118.710000
    reduced_to: 1
  - symbol: Sn # 5
    coordinates: [  0.850000000000000,  0.073875893555961,  0.311815956535635 ]
    mass: 118.710000
    reduced_to: 1
  - symbol: Sn # 6
    coordinates: [  0.049999999999999,  0.273875893555961,  0.311815956535635 ]
    mass: 118.710000
    reduced_to: 1
  - symbol: Sn # 7
    coordinates: [  0.249999999999999,  0.273875893555961,  0.311815956535635 ]
    mass: 118.710000
    reduced_to: 1
  - symbol: Sn # 8
    coordinates: [  0.449999999999999,  0.273875893555961,  0.311815956535635 ]
    mass: 118.710000
    reduced_to: 1
  - symbol: Sn # 9
    coordinates: [  0.649999999999999,  0.273875893555961,  0.311815956535635 ]
    mass: 118.710000
    reduced_to: 1
  - symbol: Sn # 10
    coordinates: [  0.850000000000000,  0.273875893555961,  0.311815956535635 ]
    mass: 118.710000
    reduced_to: 1
  - symbol: Sn # 11
    coordinates: [  0.049999999999999,  0.473875893555961,  0.311815956535635 ]
    mass: 118.710000
    reduced_to: 1
  - symbol: Sn # 12
    coordinates: [  0.249999999999999,  0.473875893555961,  0.311815956535635 ]
    mass: 118.710000
    reduced_to: 1
  - symbol: Sn # 13
    coordinates: [  0.449999999999999,  0.473875893555961,  0.311815956535635 ]
    mass: 118.710000
    reduced_to: 1
  - symbol: Sn # 14
    coordinates: [  0.649999999999999,  0.473875893555961,  0.311815956535635 ]
    mass: 118.710000
    reduced_to: 1
  - symbol: Sn # 15
    coordinates: [  0.850000000000000,  0.473875893555961,  0.311815956535635 ]
    mass: 118.710000
    reduced_to: 1
  - symbol: Sn # 16
    coordinates: [  0.049999999999999,  0.673875893555961,  0.311815956535635 ]
    mass: 118.710000
    reduced_to: 1
  - symbol: Sn # 17
    coordinates: [  0.249999999999999,  0.673875893555961,  0.311815956535635 ]
    mass: 118.710000
    reduced_to: 1
  - symbol: Sn # 18
    coordinates: [  0.449999999999999,  0.673875893555961,  0.311815956535635 ]
    mass: 118.710000
    reduced_to: 1
  - symbol: Sn # 19
    coordinates: [  0.649999999999999,  0.673875893555961,  0.311815956535635 ]
    mass: 118.710000
    reduced_to: 1
  - symbol: Sn # 20
    coordinates: [  0.850000000000000,  0.673875893555961,  0.311815956535635 ]
    mass: 118.710000
    reduced_to: 1
  - symbol: Sn # 21
    coordinates: [  0.049999999999999,  0.873875893555961,  0.311815956535635 ]
    mass: 118.710000
    reduced_to: 1
  - symbol: Sn # 22
    coordinates: [  0.249999999999999,  0.873875893555961,  0.311815956535635 ]
    mass: 118.710000
    reduced_to: 1
  - symbol: Sn # 23
    coordinates: [  0.449999999999999,  0.873875893555961,  0.311815956535635 ]
    mass: 118.710000
    reduced_to: 1
  - symbol: Sn # 24
    coordinates: [  0.649999999999999,  0.873875893555961,  0.311815956535635 ]
    mass: 118.710000
    reduced_to: 1
  - symbol: Sn # 25
    coordinates: [  0.850000000000000,  0.873875893555961,  0.311815956535635 ]
    mass: 118.710000
    reduced_to: 1
  - symbol: Sn # 26
    coordinates: [  0.049999999999999,  0.073875893555961,  0.811815956535635 ]
    mass: 118.710000
    reduced_to: 1
  - symbol: Sn # 27
    coordinates: [  0.249999999999999,  0.073875893555961,  0.811815956535635 ]
    mass: 118.710000
    reduced_to: 1
  - symbol: Sn # 28
    coordinates: [  0.449999999999999,  0.073875893555961,  0.811815956535635 ]
    mass: 118.710000
    reduced_to: 1
  - symbol: Sn # 29
    coordinates: [  0.649999999999999,  0.073875893555961,  0.811815956535635 ]
    mass: 118.710000
    reduced_to: 1
  - symbol: Sn # 30
    coordinates: [  0.850000000000000,  0.073875893555961,  0.811815956535635 ]
    mass: 118.710000
    reduced_to: 1
  - symbol: Sn # 31
    coordinates: [  0.049999999999999,  0.273875893555961,  0.811815956535635 ]
    mass: 118.710000
    reduced_to: 1
  - symbol: Sn # 32
    coordinates: [  0.249999999999999,  0.273875893555961,  0.811815956535635 ]
    mass: 118.710000
    reduced_to: 1
  - symbol: Sn # 33
    coordinates: [  0.449999999999999,  0.273875893555961,  0.811815956535635 ]
    mass: 118.710000
    reduced_to: 1
  - symbol: Sn # 34
    coordinates: [  0.649999999999999,  0.273875893555961,  0.811815956535635 ]
    mass: 118.710000
    reduced_to: 1
  - symbol: Sn # 35
    coordinates: [  0.850000000000000,  0.273875893555961,  0.811815956535635 ]
    mass: 118.710000
    reduced_to: 1
  - symbol: Sn # 36
    coordinates: [  0.049999999999999,  0.473875893555961,  0.811815956535635 ]
    mass: 118.710000
    reduced_to: 1
  - symbol: Sn # 37
    coordinates: [  0.249999999999999,  0.473875893555961,  0.811815956535635 ]
    mass: 118.710000
    reduced_to: 1
  - symbol: Sn # 38
    coordinates: [  0.449999999999999,  0.473875893555961,  0.811815956535635 ]
    mass: 118.710000
    reduced_to: 1
  - symbol: Sn # 39
    coordinates: [  0.649999999999999,  0.473875893555961,  0.811815956535635 ]
    mass: 118.710000
    reduced_to: 1
  - symbol: Sn # 40
    coordinates: [  0.850000000000000,  0.473875893555961,  0.811815956535635 ]
    mass: 118.710000
    reduced_to: 1
  - symbol: Sn # 41
    coordinates: [  0.049999999999999,  0.673875893555961,  0.811815956535635 ]
    mass: 118.710000
    reduced_to: 1
  - symbol: Sn # 42
    coordinates: [  0.249999999999999,  0.673875893555961,  0.811815956535635 ]
    mass: 118.710000
    reduced_to: 1
  - symbol: Sn # 43
    coordinates: [  0.449999999999999,  0.673875893555961,  0.811815956535635 ]
    mass: 118.710000
    reduced_to: 1
  - symbol: Sn # 44
    coordinates: [  0.649999999999999,  0.673875893555961,  0.811815956535635 ]
    mass: 118.710000
    reduced_to: 1
  - symbol: Sn # 45
    coordinates: [  0.850000000000000,  0.673875893555961,  0.811815956535635 ]
    mass: 118.710000
    reduced_to: 1
  - symbol: Sn # 46
    coordinates: [  0.049999999999999,  0.873875893555961,  0.811815956535635 ]
    mass: 118.710000
    reduced_to: 1
  - symbol: Sn # 47
    coordinates: [  0.249999999999999,  0.873875893555961,  0.811815956535635 ]
    mass: 118.710000
    reduced_to: 1
  - symbol: Sn # 48
    coordinates: [  0.449999999999999,  0.873875893555961,  0.811815956535635 ]
    mass: 118.710000
    reduced_to: 1
  - symbol: Sn # 49
    coordinates: [  0.649999999999999,  0.873875893555961,  0.811815956535635 ]
    mass: 118.710000
    reduced_to: 1
  - symbol: Sn # 50
    coordinates: [  0.850000000000000,  0.873875893555961,  0.811815956535635 ]
    mass: 118.710000
    reduced_to: 1
  - symbol: Sn # 51
    coordinates: [  0.149999999999999,  0.126124106444038,  0.188184043464365 ]
    mass: 118.710000
    reduced_to: 51
  - symbol: Sn # 52
    coordinates: [  0.349999999999999,  0.126124106444038,  0.188184043464365 ]
    mass: 118.710000
    reduced_to: 51
  - symbol: Sn # 53
    coordinates: [  0.549999999999999,  0.126124106444038,  0.188184043464365 ]
    mass: 118.710000
    reduced_to: 51
  - symbol: Sn # 54
    coordinates: [  0.750000000000000,  0.126124106444038,  0.188184043464365 ]
    mass: 118.710000
    reduced_to: 51
  - symbol: Sn # 55
    coordinates: [  0.950000000000000,  0.126124106444038,  0.188184043464365 ]
    mass: 118.710000
    reduced_to: 51
  - symbol: Sn # 56
    coordinates: [  0.149999999999999,  0.326124106444038,  0.188184043464365 ]
    mass: 118.710000
    reduced_to: 51
  - symbol: Sn # 57
    coordinates: [  0.349999999999999,  0.326124106444038,  0.188184043464365 ]
    mass: 118.710000
    reduced_to: 51
  - symbol: Sn # 58
    coordinates: [  0.549999999999999,  0.326124106444038,  0.188184043464365 ]
    mass: 118.710000
    reduced_to: 51
  - symbol: Sn # 59
    coordinates: [  0.750000000000000,  0.326124106444038,  0.188184043464365 ]
    mass: 118.710000
    reduced_to: 51
  - symbol: Sn # 60
    coordinates: [  0.950000000000000,  0.326124106444038,  0.188184043464365 ]
    mass: 118.710000
    reduced_to: 51
  - symbol: Sn # 61
    coordinates: [  0.149999999999999,  0.526124106444038,  0.188184043464365 ]
    mass: 118.710000
    reduced_to: 51
  - symbol: Sn # 62
    coordinates: [  0.349999999999999,  0.526124106444038,  0.188184043464365 ]
    mass: 118.710000
    reduced_to: 51
  - symbol: Sn # 63
    coordinates: [  0.549999999999999,  0.526124106444038,  0.188184043464365 ]
    mass: 118.710000
    reduced_to: 51
  - symbol: Sn # 64
    coordinates: [  0.750000000000000,  0.526124106444038,  0.188184043464365 ]
    mass: 118.710000
    reduced_to: 51
  - symbol: Sn # 65
    coordinates: [  0.950000000000000,  0.526124106444038,  0.188184043464365 ]
    mass: 118.710000
    reduced_to: 51
  - symbol: Sn # 66
    coordinates: [  0.149999999999999,  0.726124106444038,  0.188184043464365 ]
    mass: 118.710000
    reduced_to: 51
  - symbol: Sn # 67
    coordinates: [  0.349999999999999,  0.726124106444038,  0.188184043464365 ]
    mass: 118.710000
    reduced_to: 51
  - symbol: Sn # 68
    coordinates: [  0.549999999999999,  0.726124106444038,  0.188184043464365 ]
    mass: 118.710000
    reduced_to: 51
  - symbol: Sn # 69
    coordinates: [  0.750000000000000,  0.726124106444038,  0.188184043464365 ]
    mass: 118.710000
    reduced_to: 51
  - symbol: Sn # 70
    coordinates: [  0.950000000000000,  0.726124106444038,  0.188184043464365 ]
    mass: 118.710000
    reduced_to: 51
  - symbol: Sn # 71
    coordinates: [  0.149999999999999,  0.926124106444038,  0.188184043464365 ]
    mass: 118.710000
    reduced_to: 51
  - symbol: Sn # 72
    coordinates: [  0.349999999999999,  0.926124106444038,  0.188184043464365 ]
    mass: 118.710000
    reduced_to: 51
  - symbol: Sn # 73
    coordinates: [  0.549999999999999,  0.926124106444038,  0.188184043464365 ]
    mass: 118.710000
    reduced_to: 51
  - symbol: Sn # 74
    coordinates: [  0.750000000000000,  0.926124106444038,  0.188184043464365 ]
    mass: 118.710000
    reduced_to: 51
  - symbol: Sn # 75
    coordinates: [  0.950000000000000,  0.926124106444038,  0.188184043464365 ]
    mass: 118.710000
    reduced_to: 51
  - symbol: Sn # 76
    coordinates: [  0.149999999999999,  0.126124106444038,  0.688184043464365 ]
    mass: 118.710000
    reduced_to: 51
  - symbol: Sn # 77
    coordinates: [  0.349999999999999,  0.126124106444038,  0.688184043464365 ]
    mass: 118.710000
    reduced_to: 51
  - symbol: Sn # 78
    coordinates: [  0.549999999999999,  0.126124106444038,  0.688184043464365 ]
    mass: 118.710000
    reduced_to: 51
  - symbol: Sn # 79
    coordinates: [  0.750000000000000,  0.126124106444038,  0.688184043464365 ]
    mass: 118.710000
    reduced_to: 51
  - symbol: Sn # 80
    coordinates: [  0.950000000000000,  0.126124106444038,  0.688184043464365 ]
    mass: 118.710000
    reduced_to: 51
  - symbol: Sn # 81
    coordinates: [  0.149999999999999,  0.326124106444038,  0.688184043464365 ]
    mass: 118.710000
    reduced_to: 51
  - symbol: Sn # 82
    coordinates: [  0.349999999999999,  0.326124106444038,  0.688184043464365 ]
    mass: 118.710000
    reduced_to: 51
  - symbol: Sn # 83
    coordinates: [  0.549999999999999,  0.326124106444038,  0.688184043464365 ]
    mass: 118.710000
    reduced_to: 51
  - symbol: Sn # 84
    coordinates: [  0.750000000000000,  0.326124106444038,  0.688184043464365 ]
    mass: 118.710000
    reduced_to: 51
  - symbol: Sn # 85
    coordinates: [  0.950000000000000,  0.326124106444038,  0.688184043464365 ]
    mass: 118.710000
    reduced_to: 51
  - symbol: Sn # 86
    coordinates: [  0.149999999999999,  0.526124106444038,  0.688184043464365 ]
    mass: 118.710000
    reduced_to: 51
  - symbol: Sn # 87
    coordinates: [  0.349999999999999,  0.526124106444038,  0.688184043464365 ]
    mass: 118.710000
    reduced_to: 51
  - symbol: Sn # 88
    coordinates: [  0.549999999999999,  0.526124106444038,  0.688184043464365 ]
    mass: 118.710000
    reduced_to: 51
  - symbol: Sn # 89
    coordinates: [  0.750000000000000,  0.526124106444038,  0.688184043464365 ]
    mass: 118.710000
    reduced_to: 51
  - symbol: Sn # 90
    coordinates: [  0.950000000000000,  0.526124106444038,  0.688184043464365 ]
    mass: 118.710000
    reduced_to: 51
  - symbol: Sn # 91
    coordinates: [  0.149999999999999,  0.726124106444038,  0.688184043464365 ]
    mass: 118.710000
    reduced_to: 51
  - symbol: Sn # 92
    coordinates: [  0.349999999999999,  0.726124106444038,  0.688184043464365 ]
    mass: 118.710000
    reduced_to: 51
  - symbol: Sn # 93
    coordinates: [  0.549999999999999,  0.726124106444038,  0.688184043464365 ]
    mass: 118.710000
    reduced_to: 51
  - symbol: Sn # 94
    coordinates: [  0.750000000000000,  0.726124106444038,  0.688184043464365 ]
    mass: 118.710000
    reduced_to: 51
  - symbol: Sn # 95
    coordinates: [  0.950000000000000,  0.726124106444038,  0.688184043464365 ]
    mass: 118.710000
    reduced_to: 51
  - symbol: Sn # 96
    coordinates: [  0.149999999999999,  0.926124106444038,  0.688184043464365 ]
    mass: 118.710000
    reduced_to: 51
  - symbol: Sn # 97
    coordinates: [  0.349999999999999,  0.926124106444038,  0.688184043464365 ]
    mass: 118.710000
    reduced_to: 51
  - symbol: Sn # 98
    coordinates: [  0.549999999999999,  0.926124106444038,  0.688184043464365 ]
    mass: 118.710000
    reduced_to: 51
  - symbol: Sn # 99
    coordinates: [  0.750000000000000,  0.926124106444038,  0.688184043464365 ]
    mass: 118.710000
    reduced_to: 51
  - symbol: Sn # 100
    coordinates: [  0.950000000000000,  0.926124106444038,  0.688184043464365 ]
    mass: 118.710000
    reduced_to: 51
  - symbol: Sn # 101
    coordinates: [  0.149999999999999,  0.173875893555961,  0.438184043464365 ]
    mass: 118.710000
    reduced_to: 101
  - symbol: Sn # 102
    coordinates: [  0.349999999999999,  0.173875893555961,  0.438184043464365 ]
    mass: 118.710000
    reduced_to: 101
  - symbol: Sn # 103
    coordinates: [  0.549999999999999,  0.173875893555961,  0.438184043464365 ]
    mass: 118.710000
    reduced_to: 101
  - symbol: Sn # 104
    coordinates: [  0.749999999999999,  0.173875893555961,  0.438184043464365 ]
    mass: 118.710000
    reduced_to: 101
  - symbol: Sn # 105
    coordinates: [  0.949999999999999,  0.173875893555961,  0.438184043464365 ]
    mass: 118.710000
    reduced_to: 101
  - symbol: Sn # 106
    coordinates: [  0.149999999999999,  0.373875893555961,  0.438184043464365 ]
    mass: 118.710000
    reduced_to: 101
  - symbol: Sn # 107
    coordinates: [  0.349999999999999,  0.373875893555961,  0.438184043464365 ]
    mass: 118.710000
    reduced_to: 101
  - symbol: Sn # 108
    coordinates: [  0.549999999999999,  0.373875893555961,  0.438184043464365 ]
    mass: 118.710000
    reduced_to: 101
  - symbol: Sn # 109
    coordinates: [  0.749999999999999,  0.373875893555961,  0.438184043464365 ]
    mass: 118.710000
    reduced_to: 101
  - symbol: Sn # 110
    coordinates: [  0.949999999999999,  0.373875893555961,  0.438184043464365 ]
    mass: 118.710000
    reduced_to: 101
  - symbol: Sn # 111
    coordinates: [  0.149999999999999,  0.573875893555961,  0.438184043464365 ]
    mass: 118.710000
    reduced_to: 101
  - symbol: Sn # 112
    coordinates: [  0.349999999999999,  0.573875893555961,  0.438184043464365 ]
    mass: 118.710000
    reduced_to: 101
  - symbol: Sn # 113
    coordinates: [  0.549999999999999,  0.573875893555961,  0.438184043464365 ]
    mass: 118.710000
    reduced_to: 101
  - symbol: Sn # 114
    coordinates: [  0.749999999999999,  0.573875893555961,  0.438184043464365 ]
    mass: 118.710000
    reduced_to: 101
  - symbol: Sn # 115
    coordinates: [  0.949999999999999,  0.573875893555961,  0.438184043464365 ]
    mass: 118.710000
    reduced_to: 101
  - symbol: Sn # 116
    coordinates: [  0.149999999999999,  0.773875893555961,  0.438184043464365 ]
    mass: 118.710000
    reduced_to: 101
  - symbol: Sn # 117
    coordinates: [  0.349999999999999,  0.773875893555961,  0.438184043464365 ]
    mass: 118.710000
    reduced_to: 101
  - symbol: Sn # 118
    coordinates: [  0.549999999999999,  0.773875893555961,  0.438184043464365 ]
    mass: 118.710000
    reduced_to: 101
  - symbol: Sn # 119
    coordinates: [  0.749999999999999,  0.773875893555961,  0.438184043464365 ]
    mass: 118.710000
    reduced_to: 101
  - symbol: Sn # 120
    coordinates: [  0.949999999999999,  0.773875893555961,  0.438184043464365 ]
    mass: 118.710000
    reduced_to: 101
  - symbol: Sn # 121
    coordinates: [  0.149999999999999,  0.973875893555961,  0.438184043464365 ]
    mass: 118.710000
    reduced_to: 101
  - symbol: Sn # 122
    coordinates: [  0.349999999999999,  0.973875893555961,  0.438184043464365 ]
    mass: 118.710000
    reduced_to: 101
  - symbol: Sn # 123
    coordinates: [  0.549999999999999,  0.973875893555961,  0.438184043464365 ]
    mass: 118.710000
    reduced_to: 101
  - symbol: Sn # 124
    coordinates: [  0.749999999999999,  0.973875893555961,  0.438184043464365 ]
    mass: 118.710000
    reduced_to: 101
  - symbol: Sn # 125
    coordinates: [  0.949999999999999,  0.973875893555961,  0.438184043464365 ]
    mass: 118.710000
    reduced_to: 101
  - symbol: Sn # 126
    coordinates: [  0.149999999999999,  0.173875893555961,  0.938184043464365 ]
    mass: 118.710000
    reduced_to: 101
  - symbol: Sn # 127
    coordinates: [  0.349999999999999,  0.173875893555961,  0.938184043464365 ]
    mass: 118.710000
    reduced_to: 101
  - symbol: Sn # 128
    coordinates: [  0.549999999999999,  0.173875893555961,  0.938184043464365 ]
    mass: 118.710000
    reduced_to: 101
  - symbol: Sn # 129
    coordinates: [  0.749999999999999,  0.173875893555961,  0.938184043464365 ]
    mass: 118.710000
    reduced_to: 101
  - symbol: Sn # 130
    coordinates: [  0.949999999999999,  0.173875893555961,  0.938184043464365 ]
    mass: 118.710000
    reduced_to: 101
  - symbol: Sn # 131
    coordinates: [  0.149999999999999,  0.373875893555961,  0.938184043464365 ]
    mass: 118.710000
    reduced_to: 101
  - symbol: Sn # 132
    coordinates: [  0.349999999999999,  0.373875893555961,  0.938184043464365 ]
    mass: 118.710000
    reduced_to: 101
  - symbol: Sn # 133
    coordinates: [  0.549999999999999,  0.373875893555961,  0.938184043464365 ]
    mass: 118.710000
    reduced_to: 101
  - symbol: Sn # 134
    coordinates: [  0.749999999999999,  0.373875893555961,  0.938184043464365 ]
    mass: 118.710000
    reduced_to: 101
  - symbol: Sn # 135
    coordinates: [  0.949999999999999,  0.373875893555961,  0.938184043464365 ]
    mass: 118.710000
    reduced_to: 101
  - symbol: Sn # 136
    coordinates: [  0.149999999999999,  0.573875893555961,  0.938184043464365 ]
    mass: 118.710000
    reduced_to: 101
  - symbol: Sn # 137
    coordinates: [  0.349999999999999,  0.573875893555961,  0.938184043464365 ]
    mass: 118.710000
    reduced_to: 101
  - symbol: Sn # 138
    coordinates: [  0.549999999999999,  0.573875893555961,  0.938184043464365 ]
    mass: 118.710000
    reduced_to: 101
  - symbol: Sn # 139
    coordinates: [  0.749999999999999,  0.573875893555961,  0.938184043464365 ]
    mass: 118.710000
    reduced_to: 101
  - symbol: Sn # 140
    coordinates: [  0.949999999999999,  0.573875893555961,  0.938184043464365 ]
    mass: 118.710000
    reduced_to: 101
  - symbol: Sn # 141
    coordinates: [  0.149999999999999,  0.773875893555961,  0.938184043464365 ]
    mass: 118.710000
    reduced_to: 101
  - symbol: Sn # 142
    coordinates: [  0.349999999999999,  0.773875893555961,  0.938184043464365 ]
    mass: 118.710000
    reduced_to: 101
  - symbol: Sn # 143
    coordinates: [  0.549999999999999,  0.773875893555961,  0.938184043464365 ]
    mass: 118.710000
    reduced_to: 101
  - symbol: Sn # 144
    coordinates: [  0.749999999999999,  0.773875893555961,  0.938184043464365 ]
    mass: 118.710000
    reduced_to: 101
  - symbol: Sn # 145
    coordinates: [  0.949999999999999,  0.773875893555961,  0.938184043464365 ]
    mass: 118.710000
    reduced_to: 101
  - symbol: Sn # 146
    coordinates: [  0.149999999999999,  0.973875893555961,  0.938184043464365 ]
    mass: 118.710000
    reduced_to: 101
  - symbol: Sn # 147
    coordinates: [  0.349999999999999,  0.973875893555961,  0.938184043464365 ]
    mass: 118.710000
    reduced_to: 101
  - symbol: Sn # 148
    coordinates: [  0.549999999999999,  0.973875893555961,  0.938184043464365 ]
    mass: 118.710000
    reduced_to: 101
  - symbol: Sn # 149
    coordinates: [  0.749999999999999,  0.973875893555961,  0.938184043464365 ]
    mass: 118.710000
    reduced_to: 101
  - symbol: Sn # 150
    coordinates: [  0.949999999999999,  0.973875893555961,  0.938184043464365 ]
    mass: 118.710000
    reduced_to: 101
  - symbol: Sn # 151
    coordinates: [  0.049999999999999,  0.026124106444038,  0.061815956535635 ]
    mass: 118.710000
    reduced_to: 151
  - symbol: Sn # 152
    coordinates: [  0.249999999999999,  0.026124106444038,  0.061815956535635 ]
    mass: 118.710000
    reduced_to: 151
  - symbol: Sn # 153
    coordinates: [  0.450000000000000,  0.026124106444038,  0.061815956535635 ]
    mass: 118.710000
    reduced_to: 151
  - symbol: Sn # 154
    coordinates: [  0.649999999999999,  0.026124106444038,  0.061815956535635 ]
    mass: 118.710000
    reduced_to: 151
  - symbol: Sn # 155
    coordinates: [  0.850000000000000,  0.026124106444038,  0.061815956535635 ]
    mass: 118.710000
    reduced_to: 151
  - symbol: Sn # 156
    coordinates: [  0.049999999999999,  0.226124106444038,  0.061815956535635 ]
    mass: 118.710000
    reduced_to: 151
  - symbol: Sn # 157
    coordinates: [  0.249999999999999,  0.226124106444038,  0.061815956535635 ]
    mass: 118.710000
    reduced_to: 151
  - symbol: Sn # 158
    coordinates: [  0.450000000000000,  0.226124106444038,  0.061815956535635 ]
    mass: 118.710000
    reduced_to: 151
  - symbol: Sn # 159
    coordinates: [  0.649999999999999,  0.226124106444038,  0.061815956535635 ]
    mass: 118.710000
    reduced_to: 151
  - symbol: Sn # 160
    coordinates: [  0.850000000000000,  0.226124106444038,  0.061815956535635 ]
    mass: 118.710000
    reduced_to: 151
  - symbol: Sn # 161
    coordinates: [  0.049999999999999,  0.426124106444038,  0.061815956535635 ]
    mass: 118.710000
    reduced_to: 151
  - symbol: Sn # 162
    coordinates: [  0.249999999999999,  0.426124106444038,  0.061815956535635 ]
    mass: 118.710000
    reduced_to: 151
  - symbol: Sn # 163
    coordinates: [  0.450000000000000,  0.426124106444038,  0.061815956535635 ]
    mass: 118.710000
    reduced_to: 151
  - symbol: Sn # 164
    coordinates: [  0.649999999999999,  0.426124106444038,  0.061815956535635 ]
    mass: 118.710000
    reduced_to: 151
  - symbol: Sn # 165
    coordinates: [  0.850000000000000,  0.426124106444038,  0.061815956535635 ]
    mass: 118.710000
    reduced_to: 151
  - symbol: Sn # 166
    coordinates: [  0.049999999999999,  0.626124106444038,  0.061815956535635 ]
    mass: 118.710000
    reduced_to: 151
  - symbol: Sn # 167
    coordinates: [  0.249999999999999,  0.626124106444038,  0.061815956535635 ]
    mass: 118.710000
    reduced_to: 151
  - symbol: Sn # 168
    coordinates: [  0.450000000000000,  0.626124106444038,  0.061815956535635 ]
    mass: 118.710000
    reduced_to: 151
  - symbol: Sn # 169
    coordinates: [  0.649999999999999,  0.626124106444038,  0.061815956535635 ]
    mass: 118.710000
    reduced_to: 151
  - symbol: Sn # 170
    coordinates: [  0.850000000000000,  0.626124106444038,  0.061815956535635 ]
    mass: 118.710000
    reduced_to: 151
  - symbol: Sn # 171
    coordinates: [  0.049999999999999,  0.826124106444038,  0.061815956535635 ]
    mass: 118.710000
    reduced_to: 151
  - symbol: Sn # 172
    coordinates: [  0.249999999999999,  0.826124106444038,  0.061815956535635 ]
    mass: 118.710000
    reduced_to: 151
  - symbol: Sn # 173
    coordinates: [  0.450000000000000,  0.826124106444038,  0.061815956535635 ]
    mass: 118.710000
    reduced_to: 151
  - symbol: Sn # 174
    coordinates: [  0.649999999999999,  0.826124106444038,  0.061815956535635 ]
    mass: 118.710000
    reduced_to: 151
  - symbol: Sn # 175
    coordinates: [  0.850000000000000,  0.826124106444038,  0.061815956535635 ]
    mass: 118.710000
    reduced_to: 151
  - symbol: Sn # 176
    coordinates: [  0.049999999999999,  0.026124106444038,  0.561815956535635 ]
    mass: 118.710000
    reduced_to: 151
  - symbol: Sn # 177
    coordinates: [  0.249999999999999,  0.026124106444038,  0.561815956535635 ]
    mass: 118.710000
    reduced_to: 151
  - symbol: Sn # 178
    coordinates: [  0.450000000000000,  0.026124106444038,  0.561815956535635 ]
    mass: 118.710000
    reduced_to: 151
  - symbol: Sn # 179
    coordinates: [  0.649999999999999,  0.026124106444038,  0.561815956535635 ]
    mass: 118.710000
    reduced_to: 151
  - symbol: Sn # 180
    coordinates: [  0.850000000000000,  0.026124106444038,  0.561815956535635 ]
    mass: 118.710000
    reduced_to: 151
  - symbol: Sn # 181
    coordinates: [  0.049999999999999,  0.226124106444038,  0.561815956535635 ]
    mass: 118.710000
    reduced_to: 151
  - symbol: Sn # 182
    coordinates: [  0.249999999999999,  0.226124106444038,  0.561815956535635 ]
    mass: 118.710000
    reduced_to: 151
  - symbol: Sn # 183
    coordinates: [  0.450000000000000,  0.226124106444038,  0.561815956535635 ]
    mass: 118.710000
    reduced_to: 151
  - symbol: Sn # 184
    coordinates: [  0.649999999999999,  0.226124106444038,  0.561815956535635 ]
    mass: 118.710000
    reduced_to: 151
  - symbol: Sn # 185
    coordinates: [  0.850000000000000,  0.226124106444038,  0.561815956535635 ]
    mass: 118.710000
    reduced_to: 151
  - symbol: Sn # 186
    coordinates: [  0.049999999999999,  0.426124106444038,  0.561815956535635 ]
    mass: 118.710000
    reduced_to: 151
  - symbol: Sn # 187
    coordinates: [  0.249999999999999,  0.426124106444038,  0.561815956535635 ]
    mass: 118.710000
    reduced_to: 151
  - symbol: Sn # 188