phonopy:
  version: "2.27.0"
  frequency_unit_conversion_factor: 15.633302
  symmetry_tolerance: 1.00000e-04

space_group:
  type: "P2_1/c"
  number: 14
  Hall_symbol: "-P 2ybc"

primitive_matrix:
- [ -1.000000000000000,  0.000000000000000,  1.000000000000000 ]
- [ -0.000000000000000,  1.000000000000000, -0.000000000000000 ]
- [ -1.000000000000000,  0.000000000000000,  0.000000000000000 ]

supercell_matrix:
- [   0,   3,   0 ]
- [   3,   0,   0 ]
- [  -1,   0,  -2 ]

primitive_cell:
  lattice:
  - [    -0.000000000000002,    -4.935924823252023,     9.991908048427371 ] # a
  - [     8.041903187520086,     0.000000000000000,    -0.000000000000001 ] # b
  - [     0.000000000000000,     9.889578021299581,     0.061852017518210 ] # c
  points:
  - symbol: Tl # 1
    coordinates: [  0.583974852174013,  0.699316135705452,  0.914132341754404 ]
    mass: 204.383300
  - symbol: Tl # 2
    coordinates: [  0.583974852174013,  0.800683864294541,  0.414132341754405 ]
    mass: 204.383300
  - symbol: Tl # 3
    coordinates: [  0.798613044109309,  0.999319825237522,  0.816202453110694 ]
    mass: 204.383300
  - symbol: Tl # 4
    coordinates: [  0.236541554236372,  0.998301120691920,  0.785207422748432 ]
    mass: 204.383300
  - symbol: Tl # 5
    coordinates: [  0.416025147825982,  0.300683864294541,  0.085867658245604 ]
    mass: 204.383300
  - symbol: Tl # 6
    coordinates: [  0.236541554236372,  0.501698879308073,  0.285207422748432 ]
    mass: 204.383300
  - symbol: Tl # 7
    coordinates: [  0.201386955890685,  0.000680174762471,  0.183797546889313 ]
    mass: 204.383300
  - symbol: Tl # 8
    coordinates: [  0.763458445763623,  0.001698879308073,  0.214792577251576 ]
    mass: 204.383300
  - symbol: Tl # 9
    coordinates: [  0.201386955890686,  0.499319825237522,  0.683797546889314 ]
    mass: 204.383300
  - symbol: Tl # 10
    coordinates: [  0.798613044109309,  0.500680174762471,  0.316202453110694 ]
    mass: 204.383300
  - symbol: Tl # 11
    coordinates: [  0.763458445763623,  0.498301120691920,  0.714792577251576 ]
    mass: 204.383300
  - symbol: Tl # 12
    coordinates: [  0.416025147825981,  0.199316135705452,  0.585867658245603 ]
    mass: 204.383300
  - symbol: Ag # 13
    coordinates: [  0.913226832498075,  0.156531128233433,  0.585546854996610 ]
    mass: 107.868200
  - symbol: Ag # 14
    coordinates: [  0.086773167501919,  0.843468871766559,  0.414453145003398 ]
    mass: 107.868200
  - symbol: Ag # 15
    coordinates: [  0.913226832498075,  0.343468871766559,  0.085546854996610 ]
    mass: 107.868200
  - symbol: Ag # 16
    coordinates: [  0.086773167501919,  0.656531128233433,  0.914453145003398 ]
    mass: 107.868200
  - symbol: Te # 17
    coordinates: [  0.368157225131987,  0.790994919794639,  0.561623859391996 ]
    mass: 127.600000
  - symbol: Te # 18
    coordinates: [  0.631842774868008,  0.209005080205354,  0.438376140608011 ]
    mass: 127.600000
  - symbol: Te # 19
    coordinates: [  0.368157225131987,  0.709005080205354,  0.061623859391996 ]
    mass: 127.600000
  - symbol: Te # 20
    coordinates: [  0.631842774868007,  0.290994919794638,  0.938376140608011 ]
    mass: 127.600000
  - symbol: Te # 21
    coordinates: [  0.957519834250882,  0.781362053400019,  0.610136328721674 ]
    mass: 127.600000
  - symbol: Te # 22
    coordinates: [  0.042480165749113,  0.281362053400019,  0.889863671278334 ]
    mass: 127.600000
  - symbol: Te # 23
    coordinates: [  0.957519834250882,  0.718637946599973,  0.110136328721674 ]
    mass: 127.600000
  - symbol: Te # 24
    coordinates: [  0.042480165749113,  0.218637946599973,  0.389863671278334 ]
    mass: 127.600000
  reciprocal_lattice: # without 2pi
  - [     0.000000000000000,    -0.000624004858805,     0.099772731503919 ] # a*
  - [     0.124348674273008,    -0.000000000000000,     0.000000000000000 ] # b*
  - [     0.000000000000000,     0.100805105817507,     0.049796937852475 ] # c*

unit_cell:
  lattice:
  - [     0.000000000000000,     9.889578021299581,     0.061852017518210 ] # a
  - [     8.041903187520088,    -0.000000000000000,    -0.000000000000000 ] # b
  - [     0.000000000000002,    -4.953653198047561,   -10.053760065945582 ] # c
  points:
  - symbol: Tl # 1
    coordinates: [  0.330157489580391,  0.699316135705452,  0.416025147825987 ]
    mass: 204.383300
    reduced_to: 1
  - symbol: Tl # 2
    coordinates: [  0.830157489580391,  0.800683864294541,  0.416025147825987 ]
    mass: 204.383300
    reduced_to: 2
  - symbol: Tl # 3
    coordinates: [  0.017589409001385,  0.999319825237522,  0.201386955890691 ]
    mass: 204.383300
    reduced_to: 3
  - symbol: Tl # 4
    coordinates: [  0.548665868512060, -0.001698879308080,  0.763458445763628 ]
    mass: 204.383300
    reduced_to: 4
  - symbol: Tl # 5
    coordinates: [  0.669842510419622,  0.300683864294541,  0.583974852174019 ]
    mass: 204.383300
    reduced_to: 5
  - symbol: Tl # 6
    coordinates: [  0.048665868512060,  0.501698879308073,  0.763458445763628 ]
    mass: 204.383300
    reduced_to: 6
  - symbol: Tl # 7
    coordinates: [  0.982410590998628,  0.000680174762471,  0.798613044109315 ]
    mass: 204.383300
    reduced_to: 7
  - symbol: Tl # 8
    coordinates: [  0.451334131487953,  1.001698879308073,  0.236541554236377 ]
    mass: 204.383300
    reduced_to: 8
  - symbol: Tl # 9
    coordinates: [  0.482410590998628,  0.499319825237522,  0.798613044109314 ]
    mass: 204.383300
    reduced_to: 9
  - symbol: Tl # 10
    coordinates: [  0.517589409001385,  0.500680174762471,  0.201386955890691 ]
    mass: 204.383300
    reduced_to: 10
  - symbol: Tl # 11
    coordinates: [  0.951334131487953,  0.498301120691920,  0.236541554236377 ]
    mass: 204.383300
    reduced_to: 11
  - symbol: Tl # 12
    coordinates: [  0.169842510419622,  0.199316135705452,  0.583974852174019 ]
    mass: 204.383300
    reduced_to: 12
  - symbol: Ag # 13
    coordinates: [  0.672320022498535,  0.156531128233433,  0.086773167501925 ]
    mass: 107.868200
    reduced_to: 13
  - symbol: Ag # 14
    coordinates: [  0.327679977501478,  0.843468871766559,  0.913226832498081 ]
    mass: 107.868200
    reduced_to: 14
  - symbol: Ag # 15
    coordinates: [  0.172320022498535,  0.343468871766559,  0.086773167501925 ]
    mass: 107.868200
    reduced_to: 15
  - symbol: Ag # 16
    coordinates: [  0.827679977501478,  0.656531128233433,  0.913226832498080 ]
    mass: 107.868200
    reduced_to: 16
  - symbol: Te # 17
    coordinates: [  0.193466634260009,  0.790994919794639,  0.631842774868013 ]
    mass: 127.600000
    reduced_to: 17
  - symbol: Te # 18
    coordinates: [  0.806533365740004,  0.209005080205354,  0.368157225131992 ]
    mass: 127.600000
    reduced_to: 18
  - symbol: Te # 19
    coordinates: [  0.693466634260009,  0.709005080205354,  0.631842774868013 ]
    mass: 127.600000
    reduced_to: 19
  - symbol: Te # 20
    coordinates: [  0.306533365740004,  0.290994919794638,  0.368157225131993 ]
    mass: 127.600000
    reduced_to: 20
  - symbol: Te # 21
    coordinates: [  0.652616494470792,  0.781362053400020,  0.042480165749118 ]
    mass: 127.600000
    reduced_to: 21
  - symbol: Te # 22
    coordinates: [  0.847383505529221,  0.281362053400019,  0.957519834250887 ]
    mass: 127.600000
    reduced_to: 22
  - symbol: Te # 23
    coordinates: [  0.152616494470792,  0.718637946599973,  0.042480165749118 ]
    mass: 127.600000
    reduced_to: 23
  - symbol: Te # 24
    coordinates: [  0.347383505529221,  0.218637946599973,  0.957519834250887 ]
    mass: 127.600000
    reduced_to: 24

supercell:
  lattice:
  - [    24.125709562560260,     4.953653198047560,    10.053760065945580 ] # a
  - [     0.000000000000001,    29.668734063898743,     0.185556052554630 ] # b
  - [    -0.000000000000004,     9.907306396095120,    20.107520131891164 ] # c
  points:
  - symbol: Tl # 1
    coordinates: [  0.233105378568484,  0.110052496526797,  0.675434736802765 ]
    mass: 204.383300
    reduced_to: 1
  - symbol: Tl # 2
    coordinates: [  0.233105378568484,  0.443385829860130,  0.675434736802765 ]
    mass: 204.383300
    reduced_to: 1
  - symbol: Tl # 3
    coordinates: [  0.233105378568484,  0.776719163193464,  0.675434736802765 ]
    mass: 204.383300
    reduced_to: 1
  - symbol: Tl # 4
    coordinates: [  0.566438711901817,  0.110052496526797,  0.508768070136098 ]
    mass: 204.383300
    reduced_to: 1
  - symbol: Tl # 5
    coordinates: [  0.566438711901817,  0.443385829860130,  0.508768070136098 ]
    mass: 204.383300
    reduced_to: 1
  - symbol: Tl # 6
    coordinates: [  0.566438711901817,  0.776719163193464,  0.508768070136098 ]
    mass: 204.383300
    reduced_to: 1
  - symbol: Tl # 7
    coordinates: [  0.899772045235151,  0.110052496526797,  0.342101403469431 ]
    mass: 204.383300
    reduced_to: 1
  - symbol: Tl # 8
    coordinates: [  0.899772045235151,  0.443385829860130,  0.342101403469431 ]
    mass: 204.383300
    reduced_to: 1
  - symbol: Tl # 9
    coordinates: [  0.899772045235151,  0.776719163193464,  0.342101403469431 ]
    mass: 204.383300
    reduced_to: 1
  - symbol: Tl # 10
    coordinates: [  0.233105378568484,  0.110052496526797,  0.175434736802765 ]
    mass: 204.383300
    reduced_to: 1
  - symbol: Tl # 11
    coordinates: [  0.233105378568484,  0.443385829860130,  0.175434736802765 ]
    mass: 204.383300
    reduced_to: 1
  - symbol: Tl # 12
    coordinates: [  0.233105378568484,  0.776719163193464,  0.175434736802765 ]
    mass: 204.383300
    reduced_to: 1
  - symbol: Tl # 13
    coordinates: [  0.566438711901817,  0.110052496526797,  0.008768070136098 ]
    mass: 204.383300
    reduced_to: 1
  - symbol: Tl # 14
    coordinates: [  0.566438711901817,  0.443385829860130,  0.008768070136098 ]
    mass: 204.383300
    reduced_to: 1
  - symbol: Tl # 15
    coordinates: [  0.566438711901817,  0.776719163193464,  0.008768070136098 ]
    mass: 204.383300
    reduced_to: 1
  - symbol: Tl # 16
    coordinates: [  0.899772045235151,  0.110052496526797,  0.842101403469431 ]
    mass: 204.383300
    reduced_to: 1
  - symbol: Tl # 17
    coordinates: [  0.899772045235151,  0.443385829860130,  0.842101403469431 ]
    mass: 204.383300
    reduced_to: 1
  - symbol: Tl # 18
    coordinates: [  0.899772045235151,  0.776719163193464,  0.842101403469431 ]
    mass: 204.383300
    reduced_to: 1
  - symbol: Tl # 19
    coordinates: [  0.266894621431514,  0.276719163193464,  0.658540115371250 ]
    mass: 204.383300
    reduced_to: 19
  - symbol: Tl # 20
    coordinates: [  0.266894621431514,  0.610052496526797,  0.658540115371250 ]
    mass: 204.383300
    reduced_to: 19
  - symbol: Tl # 21
    coordinates: [  0.266894621431514,  0.943385829860130,  0.658540115371250 ]
    mass: 204.383300
    reduced_to: 19
  - symbol: Tl # 22
    coordinates: [  0.600227954764847,  0.276719163193464,  0.491873448704583 ]
    mass: 204.383300
    reduced_to: 19
  - symbol: Tl # 23
    coordinates: [  0.600227954764847,  0.610052496526797,  0.491873448704583 ]
    mass: 204.383300
    reduced_to: 19
  - symbol: Tl # 24
    coordinates: [  0.600227954764847,  0.943385829860130,  0.491873448704583 ]
    mass: 204.383300
    reduced_to: 19
  - symbol: Tl # 25
    coordinates: [  0.933561288098180,  0.276719163193464,  0.325206782037917 ]
    mass: 204.383300
    reduced_to: 19
  - symbol: Tl # 26
    coordinates: [  0.933561288098180,  0.610052496526797,  0.325206782037917 ]
    mass: 204.383300
    reduced_to: 19
  - symbol: Tl # 27
    coordinates: [  0.933561288098180,  0.943385829860130,  0.325206782037917 ]
    mass: 204.383300
    reduced_to: 19
  - symbol: Tl # 28
    coordinates: [  0.266894621431514,  0.276719163193464,  0.158540115371250 ]
    mass: 204.383300
    reduced_to: 19
  - symbol: Tl # 29
    coordinates: [  0.266894621431514,  0.610052496526797,  0.158540115371250 ]
    mass: 204.383300
    reduced_to: 19
  - symbol: Tl # 30
    coordinates: [  0.266894621431514,  0.943385829860130,  0.158540115371250 ]
    mass: 204.383300
    reduced_to: 19
  - symbol: Tl # 31
    coordinates: [  0.600227954764847,  0.276719163193464,  0.991873448704583 ]
    mass: 204.383300
    reduced_to: 19
  - symbol: Tl # 32
    coordinates: [  0.600227954764847,  0.610052496526797,  0.991873448704583 ]
    mass: 204.383300
    reduced_to: 19
  - symbol: Tl # 33
    coordinates: [  0.600227954764847,  0.943385829860130,  0.991873448704583 ]
    mass: 204.383300
    reduced_to: 19
  - symbol: Tl # 34
    coordinates: [  0.933561288098180,  0.276719163193464,  0.825206782037917 ]
    mass: 204.383300
    reduced_to: 19
  - symbol: Tl # 35
    coordinates: [  0.933561288098180,  0.610052496526797,  0.825206782037917 ]
    mass: 204.383300
    reduced_to: 19
  - symbol: Tl # 36
    coordinates: [  0.933561288098180,  0.943385829860130,  0.825206782037917 ]
    mass: 204.383300
    reduced_to: 19
  - symbol: Tl # 37
    coordinates: [  0.333106608412507,  0.005863136333795,  0.732753217848401 ]
    mass: 204.383300
    reduced_to: 37
  - symbol: Tl # 38
    coordinates: [  0.333106608412507,  0.339196469667128,  0.732753217848401 ]
    mass: 204.383300
    reduced_to: 37
  - symbol: Tl # 39
    coordinates: [  0.333106608412507,  0.672529803000462,  0.732753217848401 ]
    mass: 204.383300
    reduced_to: 37
  - symbol: Tl # 40
    coordinates: [  0.666439941745841,  0.005863136333795,  0.566086551181734 ]
    mass: 204.383300
    reduced_to: 37
  - symbol: Tl # 41
    coordinates: [  0.666439941745841,  0.339196469667128,  0.566086551181734 ]
    mass: 204.383300
    reduced_to: 37
  - symbol: Tl # 42
    coordinates: [  0.666439941745841,  0.672529803000462,  0.566086551181734 ]
    mass: 204.383300
    reduced_to: 37
  - symbol: Tl # 43
    coordinates: [  0.999773275079174,  0.005863136333795,  0.399419884515068 ]
    mass: 204.383300
    reduced_to: 37
  - symbol: Tl # 44
    coordinates: [  0.999773275079174,  0.339196469667128,  0.399419884515068 ]
    mass: 204.383300
    reduced_to: 37
  - symbol: Tl # 45
    coordinates: [  0.999773275079174,  0.672529803000462,  0.399419884515068 ]
    mass: 204.383300
    reduced_to: 37
  - symbol: Tl # 46
    coordinates: [  0.333106608412507,  0.005863136333795,  0.232753217848401 ]
    mass: 204.383300
    reduced_to: 37
  - symbol: Tl # 47
    coordinates: [  0.333106608412507,  0.339196469667128,  0.232753217848401 ]
    mass: 204.383300
    reduced_to: 37
  - symbol: Tl # 48
    coordinates: [  0.333106608412507,  0.672529803000462,  0.232753217848401 ]
    mass: 204.383300
    reduced_to: 37
  - symbol: Tl # 49
    coordinates: [  0.666439941745841,  0.005863136333795,  0.066086551181734 ]
    mass: 204.383300
    reduced_to: 37
  - symbol: Tl # 50
    coordinates: [  0.666439941745841,  0.339196469667128,  0.066086551181734 ]
    mass: 204.383300
    reduced_to: 37
  - symbol: Tl # 51
    coordinates: [  0.666439941745841,  0.672529803000462,  0.066086551181734 ]
    mass: 204.383300
    reduced_to: 37
  - symbol: Tl # 52
    coordinates: [  0.999773275079174,  0.005863136333795,  0.899419884515068 ]
    mass: 204.383300
    reduced_to: 37
  - symbol: Tl # 53
    coordinates: [  0.999773275079174,  0.339196469667128,  0.899419884515068 ]
    mass: 204.383300
    reduced_to: 37
  - symbol: Tl # 54
    coordinates: [  0.999773275079174,  0.672529803000462,  0.899419884515068 ]
    mass: 204.383300
    reduced_to: 37
  - symbol: Tl # 55
    coordinates: [  0.999433706897307,  0.182888622837353,  0.618553923669533 ]
    mass: 204.383300
    reduced_to: 55
  - symbol: Tl # 56
    coordinates: [  0.999433706897307,  0.516221956170687,  0.618553923669533 ]
    mass: 204.383300
    reduced_to: 55
  - symbol: Tl # 57
    coordinates: [  0.999433706897307,  0.849555289504020,  0.618553923669533 ]
    mass: 204.383300
    reduced_to: 55
  - symbol: Tl # 58
    coordinates: [  0.332767040230640,  0.182888622837353,  0.451887257002866 ]
    mass: 204.383300
    reduced_to: 55
  - symbol: Tl # 59
    coordinates: [  0.332767040230640,  0.516221956170687,  0.451887257002866 ]
    mass: 204.383300
    reduced_to: 55
  - symbol: Tl # 60
    coordinates: [  0.332767040230640,  0.849555289504020,  0.451887257002866 ]
    mass: 204.383300
    reduced_to: 55
  - symbol: Tl # 61
    coordinates: [  0.666100373563973,  0.182888622837353,  0.285220590336200 ]
    mass: 204.383300
    reduced_to: 55
  - symbol: Tl # 62
    coordinates: [  0.666100373563973,  0.516221956170687,  0.285220590336200 ]
    mass: 204.383300
    reduced_to: 55
  - symbol: Tl # 63
    coordinates: [  0.666100373563973,  0.849555289504020,  0.285220590336200 ]
    mass: 204.383300
    reduced_to: 55
  - symbol: Tl # 64
    coordinates: [  0.999433706897307,  0.182888622837353,  0.118553923669533 ]
    mass: 204.383300
    reduced_to: 55
  - symbol: Tl # 65
    coordinates: [  0.999433706897307,  0.516221956170687,  0.118553923669533 ]
    mass: 204.383300
    reduced_to: 55
  - symbol: Tl # 66
    coordinates: [  0.999433706897307,  0.849555289504020,  0.118553923669533 ]
    mass: 204.383300
    reduced_to: 55
  - symbol: Tl # 67
    coordinates: [  0.332767040230640,  0.182888622837353,  0.951887257002866 ]
    mass: 204.383300
    reduced_to: 55
  - symbol: Tl # 68
    coordinates: [  0.332767040230640,  0.516221956170687,  0.951887257002866 ]
    mass: 204.383300
    reduced_to: 55
  - symbol: Tl # 69
    coordinates: [  0.332767040230640,  0.849555289504020,  0.951887257002866 ]
    mass: 204.383300
    reduced_to: 55
  - symbol: Tl # 70
    coordinates: [  0.666100373563973,  0.182888622837353,  0.785220590336200 ]
    mass: 204.383300
    reduced_to: 55
  - symbol: Tl # 71
    coordinates: [  0.666100373563973,  0.516221956170687,  0.785220590336200 ]
    mass: 204.383300
    reduced_to: 55
  - symbol: Tl # 72
    coordinates: [  0.666100373563973,  0.849555289504020,  0.785220590336200 ]
    mass: 204.383300
    reduced_to: 55
  - symbol: Tl # 73
    coordinates: [  0.100227954764847,  0.223280836806541,  0.657898596530567 ]
    mass: 204.383300
    reduced_to: 73
  - symbol: Tl # 74
    coordinates: [  0.100227954764847,  0.556614170139874,  0.657898596530567 ]
    mass: 204.383300
    reduced_to: 73
  - symbol: Tl # 75
    coordinates: [  0.100227954764847,  0.889947503473207,  0.657898596530567 ]
    mass: 204.383300
    reduced_to: 73
  - symbol: Tl # 76
    coordinates: [  0.433561288098180,  0.223280836806541,  0.491231929863901 ]
    mass: 204.383300
    reduced_to: 73
  - symbol: Tl # 77
    coordinates: [  0.433561288098180,  0.556614170139874,  0.491231929863901 ]
    mass: 204.383300
    reduced_to: 73
  - symbol: Tl # 78
    coordinates: [  0.433561288098180,  0.889947503473207,  0.491231929863901 ]
    mass: 204.383300
    reduced_to: 73
  - symbol: Tl # 79
    coordinates: [  0.766894621431514,  0.223280836806541,  0.324565263197234 ]
    mass: 204.383300
    reduced_to: 73
  - symbol: Tl # 80
    coordinates: [  0.766894621431514,  0.556614170139874,  0.324565263197234 ]
    mass: 204.383300
    reduced_to: 73
  - symbol: Tl # 81
    coordinates: [  0.766894621431514,  0.889947503473207,  0.324565263197234 ]
    mass: 204.383300
    reduced_to: 73
  - symbol: Tl # 82
    coordinates: [  0.100227954764847,  0.223280836806541,  0.157898596530567 ]
    mass: 204.383300
    reduced_to: 73
  - symbol: Tl # 83
    coordinates: [  0.100227954764847,  0.556614170139874,  0.157898596530567 ]
    mass: 204.383300
    reduced_to: 73
  - symbol: Tl # 84
    coordinates: [  0.100227954764847,  0.889947503473207,  0.157898596530567 ]
    mass: 204.383300
    reduced_to: 73
  - symbol: Tl # 85
    coordinates: [  0.433561288098180,  0.223280836806541,  0.991231929863901 ]
    mass: 204.383300
    reduced_to: 73
  - symbol: Tl # 86
    coordinates: [  0.433561288098180,  0.556614170139874,  0.991231929863901 ]
    mass: 204.383300
    reduced_to: 73
  - symbol: Tl # 87
    coordinates: [  0.433561288098180,  0.889947503473207,  0.991231929863901 ]
    mass: 204.383300
    reduced_to: 73
  - symbol: Tl # 88
    coordinates: [  0.766894621431514,  0.223280836806541,  0.824565263197234 ]
    mass: 204.383300
    reduced_to: 73
  - symbol: Tl # 89
    coordinates: [  0.766894621431514,  0.556614170139874,  0.824565263197234 ]
    mass: 204.383300
    reduced_to: 73
  - symbol: Tl # 90
    coordinates: [  0.766894621431514,  0.889947503473207,  0.824565263197234 ]
    mass: 204.383300
    reduced_to: 73
  - symbol: Tl # 91
    coordinates: [  0.167232959769358,  0.016221956170687,  0.534654297233507 ]
    mass: 204.383300
    reduced_to: 91
  - symbol: Tl # 92
    coordinates: [  0.167232959769358,  0.349555289504020,  0.534654297233507 ]
    mass: 204.383300
    reduced_to: 91
  - symbol: Tl # 93
    coordinates: [  0.167232959769358,  0.682888622837353,  0.534654297233507 ]
    mass: 204.383300
    reduced_to: 91
  - symbol: Tl # 94
    coordinates: [  0.500566293102691,  0.016221956170687,  0.367987630566841 ]
    mass: 204.383300
    reduced_to: 91
  - symbol: Tl # 95
    coordinates: [  0.500566293102691,  0.349555289504020,  0.367987630566841 ]
    mass: 204.383300
    reduced_to: 91
  - symbol: Tl # 96
    coordinates: [  0.500566293102691,  0.682888622837353,  0.367987630566841 ]
    mass: 204.383300
    reduced_to: 91
  - symbol: Tl # 97
    coordinates: [  0.833899626436024,  0.016221956170687,  0.201320963900174 ]
    mass: 204.383300
    reduced_to: 91
  - symbol: Tl # 98
    coordinates: [  0.833899626436024,  0.349555289504020,  0.201320963900174 ]
    mass: 204.383300
    reduced_to: 91
  - symbol: Tl # 99
    coordinates: [  0.833899626436024,  0.682888622837353,  0.201320963900174 ]
    mass: 204.383300
    reduced_to: 91
  - symbol: Tl # 100
    coordinates: [  0.167232959769358,  0.016221956170687,  0.034654297233507 ]
    mass: 204.383300
    reduced_to: 91
  - symbol: Tl # 101
    coordinates: [  0.167232959769358,  0.349555289504020,  0.034654297233507 ]
    mass: 204.383300
    reduced_to: 91
  - symbol: Tl # 102
    coordinates: [  0.167232959769358,  0.682888622837353,  0.034654297233507 ]
    mass: 204.383300
    reduced_to: 91
  - symbol: Tl # 103
    coordinates: [  0.500566293102691,  0.016221956170687,  0.867987630566841 ]
    mass: 204.383300
    reduced_to: 91
  - symbol: Tl # 104
    coordinates: [  0.500566293102691,  0.349555289504020,  0.867987630566841 ]
    mass: 204.383300
    reduced_to: 91
  - symbol: Tl # 105
    coordinates: [  0.500566293102691,  0.682888622837353,  0.867987630566841 ]
    mass: 204.383300
    reduced_to: 91
  - symbol: Tl # 106
    coordinates: [  0.833899626436024,  0.016221956170687,  0.701320963900174 ]
    mass: 204.383300
    reduced_to: 91
  - symbol: Tl # 107
    coordinates: [  0.833899626436024,  0.349555289504020,  0.701320963900174 ]
    mass: 204.383300
    reduced_to: 91
  - symbol: Tl # 108
    coordinates: [  0.833899626436024,  0.682888622837353,  0.701320963900174 ]
    mass: 204.383300
    reduced_to: 91
  - symbol: Tl # 109
    coordinates: [  0.000226724920824,  0.327470196999543,  0.600580115484931 ]
    mass: 204.383300
    reduced_to: 109
  - symbol: Tl # 110
    coordinates: [  0.000226724920824,  0.660803530332876,  0.600580115484931 ]
    mass: 204.383300
    reduced_to: 109
  - symbol: Tl # 111
    coordinates: [  0.000226724920824,  0.994136863666209,  0.600580115484931 ]
    mass: 204.383300
    reduced_to: 109
  - symbol: Tl # 112
    coordinates: [  0.333560058254157,  0.327470196999543,  0.433913448818264 ]
    mass: 204.383300
    reduced_to: 109
  - symbol: Tl # 113
    coordinates: [  0.333560058254157,  0.660803530332876,  0.433913448818264 ]
    mass: 204.383300
    reduced_to: 109
  - symbol: Tl # 114
    coordinates: [  0.333560058254157,  0.994136863666209,  0.433913448818264 ]
    mass: 204.383300
    reduced_to: 109
  - symbol: Tl # 115
    coordinates: [  0.666893391587490,  0.327470196999543,  0.267246782151598 ]
    mass: 204.383300
    reduced_to: 109
  - symbol: Tl # 116
    coordinates: [  0.666893391587490,  0.660803530332876,  0.267246782151598 ]
    mass: 204.383300
    reduced_to: 109
  - symbol: Tl # 117
    coordinates: [  0.666893391587490,  0.994136863666209,  0.267246782151598 ]
    mass: 204.383300
    reduced_to: 109
  - symbol: Tl # 118
    coordinates: [  0.000226724920824,  0.327470196999543,  0.100580115484931 ]
    mass: 204.383300
    reduced_to: 109
  - symbol: Tl # 119
    coordinates: [  0.000226724920824,  0.660803530332876,  0.100580115484931 ]
    mass: 204.383300
    reduced_to: 109
  - symbol: Tl # 120
    coordinates: [  0.000226724920824,  0.994136863666209,  0.100580115484931 ]
    mass: 204.383300
    reduced_to: 109
  - symbol: Tl # 121
    coordinates: [  0.333560058254157,  0.327470196999543,  0.933913448818264 ]
    mass: 204.383300
    reduced_to: 109
  - symbol: Tl # 122
    coordinates: [  0.333560058254157,  0.660803530332876,  0.933913448818264 ]
    mass: 204.383300
    reduced_to: 109
  - symbol: Tl # 123
    coordinates: [  0.333560058254157,  0.994136863666209,  0.933913448818264 ]
    mass: 204.383300
    reduced_to: 109
  - symbol: Tl # 124
    coordinates: [  0.666893391587490,  0.327470196999543,  0.767246782151598 ]
    mass: 204.383300
    reduced_to: 109
  - symbol: Tl # 125
    coordinates: [  0.666893391587490,  0.660803530332876,  0.767246782151598 ]
    mass: 204.383300
    reduced_to: 109
  - symbol: Tl # 126
    coordinates: [  0.666893391587490,  0.994136863666209,  0.767246782151598 ]
    mass: 204.383300
    reduced_to: 109
  - symbol: Tl # 127
    coordinates: [  0.333899626436024,  0.150444710495984,  0.714779409663799 ]
    mass: 204.383300
    reduced_to: 127
  - symbol: Tl # 128
    coordinates: [  0.333899626436024,  0.483778043829318,  0.714779409663799 ]
    mass: 204.383300
    reduced_to: 127
  - symbol: Tl # 129
    coordinates: [  0.333899626436024,  0.817111377162651,  0.714779409663799 ]
    mass: 204.383300
    reduced_to: 127
  - symbol: Tl # 130
    coordinates: [  0.667232959769358,  0.150444710495984,  0.548112742997132 ]
    mass: 204.383300
    reduced_to: 127
  - symbol: Tl # 131
    coordinates: [  0.667232959769358,  0.483778043829318,  0.548112742997132 ]
    mass: 204.383300
    reduced_to: 127
  - symbol: Tl # 132
    coordinates: [  0.667232959769358,  0.817111377162651,  0.548112742997132 ]
    mass: 204.383300
    reduced_to: 127
  - symbol: Tl # 133
    coordinates: [  0.000566293102691,  0.150444710495984,  0.381446076330466 ]
    mass: 204.383300
    reduced_to: 127
  - symbol: Tl # 134
    coordinates: [  0.000566293102691,  0.483778043829318,  0.381446076330466 ]
    mass: 204.383300
    reduced_to: 127
  - symbol: Tl # 135
    coordinates: [  0.000566293102691,  0.817111377162651,  0.381446076330466 ]
    mass: 204.383300
    reduced_to: 127
  - symbol: Tl # 136
    coordinates: [  0.333899626436024,  0.150444710495984,  0.214779409663799 ]
    mass: 204.383300
    reduced_to: 127
  - symbol: Tl # 137
    coordinates: [  0.333899626436024,  0.483778043829318,  0.214779409663799 ]
    mass: 204.383300
    reduced_to: 127
  - symbol: Tl # 138
    coordinates: [  0.333899626436024,  0.817111377162651,  0.214779409663799 ]
    mass: 204.383300
    reduced_to: 127
  - symbol: Tl # 139
    coordinates: [  0.667232959769358,  0.150444710495984,  0.048112742997133 ]
    mass: 204.383300
    reduced_to: 127
  - symbol: Tl # 140
    coordinates: [  0.667232959769358,  0.483778043829318,  0.048112742997133 ]
    mass: 204.383300
    reduced_to: 127
  - symbol: Tl # 141
    coordinates: [  0.667232959769358,  0.817111377162651,  0.048112742997133 ]
    mass: 204.383300
    reduced_to: 127
  - symbol: Tl # 142
    coordinates: [  0.000566293102691,  0.150444710495984,  0.881446076330466 ]
    mass: 204.383300
    reduced_to: 127
  - symbol: Tl # 143
    coordinates: [  0.000566293102691,  0.483778043829318,  0.881446076330466 ]
    mass: 204.383300
    reduced_to: 127
  - symbol: Tl # 144
    coordinates: [  0.000566293102691,  0.817111377162651,  0.881446076330466 ]
    mass: 204.383300
    reduced_to: 127
  - symbol: Tl # 145
    coordinates: [  0.166439941745841,  0.160803530332876,  0.517473507072423 ]
    mass: 204.383300
    reduced_to: 145
  - symbol: Tl # 146
    coordinates: [  0.166439941745841,  0.494136863666209,  0.517473507072423 ]
    mass: 204.383300
    reduced_to: 145
  - symbol: Tl # 147
    coordinates: [  0.166439941745841,  0.827470196999542,  0.517473507072423 ]
    mass: 204.383300
    reduced_to: 145
  - symbol: Tl # 148
    coordinates: [  0.499773275079174,  0.160803530332876,  0.350806840405756 ]
    mass: 204.383300
    reduced_to: 145
  - symbol: Tl # 149
    coordinates: [  0.499773275079174,  0.494136863666209,  0.350806840405756 ]
    mass: 204.383300
    reduced_to: 145
  - symbol: Tl # 150
    coordinates: [  0.499773275079174,  0.827470196999542,  0.350806840405756 ]
    mass: 204.383300
    reduced_to: 145
  - symbol: Tl # 151
    coordinates: [  0.833106608412507,  0.160803530332876,  0.184140173739089 ]
    mass: 204.383300
    reduced_to: 145
  - symbol: Tl # 152
    coordinates: [  0.833106608412507,  0.494136863666209,  0.184140173739089 ]
    mass: 204.383300
    reduced_to: 145
  - symbol: Tl # 153
    coordinates: [  0.833106608412507,  0.827470196999542,  0.184140173739089 ]
    mass: 204.383300
    reduced_to: 145
  - symbol: Tl # 154
    coordinates: [  0.166439941745841,  0.160803530332876,  0.017473507072422 ]
    mass: 204.383300
    reduced_to: 145
  - symbol: Tl # 155
    coordinates: [  0.166439941745841,  0.494136863666209,  0.017473507072422 ]
    mass: 204.383300
    reduced_to: 145
  - symbol: Tl # 156
    coordinates: [  0.166439941745841,  0.827470196999542,  0.017473507072422 ]
    mass: 204.383300
    reduced_to: 145
  - symbol: Tl # 157
    coordinates: [  0.499773275079174,  0.160803530332876,  0.850806840405756 ]
    mass: 204.383300
    reduced_to: 145
  - symbol: Tl # 158
    coordinates: [  0.499773275079174,  0.494136863666209,  0.850806840405756 ]
    mass: 204.383300