phonopy:
  version: "2.27.0"
  frequency_unit_conversion_factor: 15.633302
  symmetry_tolerance: 1.00000e-03

space_group:
  type: "R3m"
  number: 160
  Hall_symbol: "R 3 -2\""

primitive_matrix:
- [  0.666666666666667, -0.333333333333333, -0.333333333333333 ]
- [  0.333333333333333,  0.333333333333333, -0.666666666666667 ]
- [  0.333333333333333,  0.333333333333333,  0.333333333333333 ]

supercell_matrix:
- [   5,  -3,   0 ]
- [   5,   3,   0 ]
- [   0,   0,   1 ]

primitive_cell:
  lattice:
  - [     2.146442636021797,    -1.239249233707298,    14.362923053096850 ] # a
  - [    -0.000000000000001,     2.478498467414557,    14.362923053096846 ] # b
  - [    -2.146442636021798,    -1.239249233707298,    14.362923053096850 ] # c
  points:
  - symbol: Ge # 1
    coordinates: [  0.572964387250447,  0.572964387250447,  0.572964387250452 ]
    mass: 72.640000
  - symbol: Sb # 2
    coordinates: [  0.424372141655867,  0.424372141655861,  0.424372141655871 ]
    mass: 121.760000
  - symbol: Sb # 3
    coordinates: [  0.997534916990334,  0.997534916990330,  0.997534916990339 ]
    mass: 121.760000
  - symbol: Te # 4
    coordinates: [  0.873461679866196,  0.873461679866197,  0.873461679866202 ]
    mass: 127.600000
  - symbol: Te # 5
    coordinates: [  0.130817337840841,  0.130817337840835,  0.130817337840845 ]
    mass: 127.600000
  - symbol: Te # 6
    coordinates: [  0.710354396845730,  0.710354396845725,  0.710354396845735 ]
    mass: 127.600000
  - symbol: Te # 7
    coordinates: [  0.290494139550558,  0.290494139550554,  0.290494139550563 ]
    mass: 127.600000
  reciprocal_lattice: # without 2pi
  - [     0.232943565138408,    -0.134490030038650,     0.023207903579311 ] # a*
  - [     0.000000000000000,     0.268980060077300,     0.023207903579311 ] # b*
  - [    -0.232943565138408,    -0.134490030038650,     0.023207903579311 ] # c*

unit_cell:
  lattice:
  - [     2.146442636021797,    -3.717747701121856,     0.000000000000005 ] # a
  - [     2.146442636021797,     3.717747701121856,    -0.000000000000005 ] # b
  - [    -0.000000000000003,    -0.000000000000038,    43.088769159290550 ] # c
  points:
  - symbol: Ge # 1
    coordinates: [  0.333333333333332,  0.666666666666663,  0.239631053917115 ]
    mass: 72.640000
    reduced_to: 1
  - symbol: Ge # 2
    coordinates: [ -0.000000000000001, -0.000000000000004,  0.572964387250448 ]
    mass: 72.640000
    reduced_to: 1
  - symbol: Ge # 3
    coordinates: [  0.666666666666665,  0.333333333333330,  0.906297720583782 ]
    mass: 72.640000
    reduced_to: 1
  - symbol: Sb # 4
    coordinates: [  0.333333333333334,  0.666666666666662,  0.091038808322533 ]
    mass: 121.760000
    reduced_to: 4
  - symbol: Sb # 5
    coordinates: [  0.666666666666668,  0.333333333333328,  0.330868250323668 ]
    mass: 121.760000
    reduced_to: 5
  - symbol: Sb # 6
    coordinates: [  0.000000000000001, -0.000000000000005,  0.424372141655866 ]
    mass: 121.760000
    reduced_to: 4
  - symbol: Sb # 7
    coordinates: [  0.333333333333335,  0.666666666666661,  0.664201583657000 ]
    mass: 121.760000
    reduced_to: 5
  - symbol: Sb # 8
    coordinates: [  0.666666666666667,  0.333333333333328,  0.757705474989199 ]
    mass: 121.760000
    reduced_to: 4
  - symbol: Sb # 9
    coordinates: [  0.000000000000001, -0.000000000000005,  0.997534916990334 ]
    mass: 121.760000
    reduced_to: 5
  - symbol: Te # 10
    coordinates: [  0.666666666666666,  0.333333333333330,  0.206795013199532 ]
    mass: 127.600000
    reduced_to: 10
  - symbol: Te # 11
    coordinates: [  0.000000000000002, -0.000000000000006,  0.130817337840840 ]
    mass: 127.600000
    reduced_to: 11
  - symbol: Te # 12
    coordinates: [  0.666666666666668,  0.333333333333328,  0.043687730179063 ]
    mass: 127.600000
    reduced_to: 12
  - symbol: Te # 13
    coordinates: [  0.000000000000001, -0.000000000000005,  0.290494139550558 ]
    mass: 127.600000
    reduced_to: 13
  - symbol: Te # 14
    coordinates: [  0.333333333333332,  0.666666666666663,  0.540128346532864 ]
    mass: 127.600000
    reduced_to: 10
  - symbol: Te # 15
    coordinates: [  0.666666666666668,  0.333333333333327,  0.464150671174174 ]
    mass: 127.600000
    reduced_to: 11
  - symbol: Te # 16
    coordinates: [  0.333333333333334,  0.666666666666660,  0.377021063512397 ]
    mass: 127.600000
    reduced_to: 12
  - symbol: Te # 17
    coordinates: [  0.666666666666667,  0.333333333333328,  0.623827472883891 ]
    mass: 127.600000
    reduced_to: 13
  - symbol: Te # 18
    coordinates: [ -0.000000000000001, -0.000000000000004,  0.873461679866198 ]
    mass: 127.600000
    reduced_to: 10
  - symbol: Te # 19
    coordinates: [  0.333333333333335,  0.666666666666660,  0.797484004507507 ]
    mass: 127.600000
    reduced_to: 11
  - symbol: Te # 20
    coordinates: [  0.000000000000001, -0.000000000000007,  0.710354396845729 ]
    mass: 127.600000
    reduced_to: 12
  - symbol: Te # 21
    coordinates: [  0.333333333333334,  0.666666666666661,  0.957160806217224 ]
    mass: 127.600000
    reduced_to: 13

supercell:
  lattice:
  - [    21.464426360217974,    -0.000000000000000,    -0.000000000000000 ] # a
  - [     0.000000000000000,    22.306486206731137,    -0.000000000000029 ] # b
  - [    -0.000000000000003,    -0.000000000000038,    43.088769159290550 ] # c
  points:
  - symbol: Ge # 1
    coordinates: [  0.100000000000000,  0.055555555555555,  0.239631053917115 ]
    mass: 72.640000
    reduced_to: 1
  - symbol: Ge # 2
    coordinates: [  0.200000000000000,  0.888888888888889,  0.239631053917115 ]
    mass: 72.640000
    reduced_to: 1
  - symbol: Ge # 3
    coordinates: [  0.300000000000000,  0.722222222222222,  0.239631053917115 ]
    mass: 72.640000
    reduced_to: 1
  - symbol: Ge # 4
    coordinates: [  0.400000000000000,  0.555555555555555,  0.239631053917115 ]
    mass: 72.640000
    reduced_to: 1
  - symbol: Ge # 5
    coordinates: [  0.500000000000000,  0.388888888888889,  0.239631053917115 ]
    mass: 72.640000
    reduced_to: 1
  - symbol: Ge # 6
    coordinates: [  0.600000000000000,  0.222222222222222,  0.239631053917115 ]
    mass: 72.640000
    reduced_to: 1
  - symbol: Ge # 7
    coordinates: [  0.700000000000000,  0.055555555555555,  0.239631053917115 ]
    mass: 72.640000
    reduced_to: 1
  - symbol: Ge # 8
    coordinates: [  0.800000000000000,  0.888888888888889,  0.239631053917115 ]
    mass: 72.640000
    reduced_to: 1
  - symbol: Ge # 9
    coordinates: [  0.200000000000000,  0.222222222222222,  0.239631053917115 ]
    mass: 72.640000
    reduced_to: 1
  - symbol: Ge # 10
    coordinates: [  0.300000000000000,  0.055555555555555,  0.239631053917115 ]
    mass: 72.640000
    reduced_to: 1
  - symbol: Ge # 11
    coordinates: [  0.400000000000000,  0.888888888888889,  0.239631053917115 ]
    mass: 72.640000
    reduced_to: 1
  - symbol: Ge # 12
    coordinates: [  0.500000000000000,  0.722222222222222,  0.239631053917115 ]
    mass: 72.640000
    reduced_to: 1
  - symbol: Ge # 13
    coordinates: [  0.600000000000000,  0.555555555555555,  0.239631053917115 ]
    mass: 72.640000
    reduced_to: 1
  - symbol: Ge # 14
    coordinates: [  0.700000000000000,  0.388888888888889,  0.239631053917115 ]
    mass: 72.640000
    reduced_to: 1
  - symbol: Ge # 15
    coordinates: [  0.800000000000000,  0.222222222222222,  0.239631053917115 ]
    mass: 72.640000
    reduced_to: 1
  - symbol: Ge # 16
    coordinates: [  0.900000000000000,  0.055555555555555,  0.239631053917115 ]
    mass: 72.640000
    reduced_to: 1
  - symbol: Ge # 17
    coordinates: [  0.300000000000000,  0.388888888888889,  0.239631053917115 ]
    mass: 72.640000
    reduced_to: 1
  - symbol: Ge # 18
    coordinates: [  0.400000000000000,  0.222222222222222,  0.239631053917115 ]
    mass: 72.640000
    reduced_to: 1
  - symbol: Ge # 19
    coordinates: [  0.500000000000000,  0.055555555555555,  0.239631053917115 ]
    mass: 72.640000
    reduced_to: 1
  - symbol: Ge # 20
    coordinates: [  0.600000000000000,  0.888888888888889,  0.239631053917115 ]
    mass: 72.640000
    reduced_to: 1
  - symbol: Ge # 21
    coordinates: [  0.700000000000000,  0.722222222222222,  0.239631053917115 ]
    mass: 72.640000
    reduced_to: 1
  - symbol: Ge # 22
    coordinates: [  0.800000000000000,  0.555555555555555,  0.239631053917115 ]
    mass: 72.640000
    reduced_to: 1
  - symbol: Ge # 23
    coordinates: [  0.900000000000000,  0.388888888888889,  0.239631053917115 ]
    mass: 72.640000
    reduced_to: 1
  - symbol: Ge # 24
    coordinates: [  1.000000000000000,  0.222222222222222,  0.239631053917115 ]
    mass: 72.640000
    reduced_to: 1
  - symbol: Ge # 25
    coordinates: [  0.900000000000000,  0.722222222222222,  0.239631053917115 ]
    mass: 72.640000
    reduced_to: 1
  - symbol: Ge # 26
    coordinates: [  1.000000000000000,  0.555555555555555,  0.239631053917115 ]
    mass: 72.640000
    reduced_to: 1
  - symbol: Ge # 27
    coordinates: [  0.100000000000000,  0.388888888888889,  0.239631053917115 ]
    mass: 72.640000
    reduced_to: 1
  - symbol: Ge # 28
    coordinates: [  1.000000000000000,  0.888888888888889,  0.239631053917115 ]
    mass: 72.640000
    reduced_to: 1
  - symbol: Ge # 29
    coordinates: [  0.100000000000000,  0.722222222222222,  0.239631053917115 ]
    mass: 72.640000
    reduced_to: 1
  - symbol: Ge # 30
    coordinates: [  0.200000000000000,  0.555555555555555,  0.239631053917115 ]
    mass: 72.640000
    reduced_to: 1
  - symbol: Ge # 31
    coordinates: [  1.000000000000000,  1.000000000000000,  0.572964387250448 ]
    mass: 72.640000
    reduced_to: 1
  - symbol: Ge # 32
    coordinates: [  0.100000000000000,  0.833333333333333,  0.572964387250448 ]
    mass: 72.640000
    reduced_to: 1
  - symbol: Ge # 33
    coordinates: [  0.200000000000000,  0.666666666666666,  0.572964387250448 ]
    mass: 72.640000
    reduced_to: 1
  - symbol: Ge # 34
    coordinates: [  0.300000000000000,  0.500000000000000,  0.572964387250448 ]
    mass: 72.640000
    reduced_to: 1
  - symbol: Ge # 35
    coordinates: [  0.400000000000000,  0.333333333333333,  0.572964387250448 ]
    mass: 72.640000
    reduced_to: 1
  - symbol: Ge # 36
    coordinates: [  0.500000000000000,  0.166666666666666,  0.572964387250448 ]
    mass: 72.640000
    reduced_to: 1
  - symbol: Ge # 37
    coordinates: [  0.600000000000000,  1.000000000000000,  0.572964387250448 ]
    mass: 72.640000
    reduced_to: 1
  - symbol: Ge # 38
    coordinates: [  0.700000000000000,  0.833333333333333,  0.572964387250448 ]
    mass: 72.640000
    reduced_to: 1
  - symbol: Ge # 39
    coordinates: [  0.100000000000000,  0.166666666666666,  0.572964387250448 ]
    mass: 72.640000
    reduced_to: 1
  - symbol: Ge # 40
    coordinates: [  0.200000000000000,  1.000000000000000,  0.572964387250448 ]
    mass: 72.640000
    reduced_to: 1
  - symbol: Ge # 41
    coordinates: [  0.300000000000000,  0.833333333333333,  0.572964387250448 ]
    mass: 72.640000
    reduced_to: 1
  - symbol: Ge # 42
    coordinates: [  0.400000000000000,  0.666666666666666,  0.572964387250448 ]
    mass: 72.640000
    reduced_to: 1
  - symbol: Ge # 43
    coordinates: [  0.500000000000000,  0.500000000000000,  0.572964387250448 ]
    mass: 72.640000
    reduced_to: 1
  - symbol: Ge # 44
    coordinates: [  0.600000000000000,  0.333333333333333,  0.572964387250448 ]
    mass: 72.640000
    reduced_to: 1
  - symbol: Ge # 45
    coordinates: [  0.700000000000000,  0.166666666666666,  0.572964387250448 ]
    mass: 72.640000
    reduced_to: 1
  - symbol: Ge # 46
    coordinates: [  0.800000000000000,  1.000000000000000,  0.572964387250448 ]
    mass: 72.640000
    reduced_to: 1
  - symbol: Ge # 47
    coordinates: [  0.200000000000000,  0.333333333333333,  0.572964387250448 ]
    mass: 72.640000
    reduced_to: 1
  - symbol: Ge # 48
    coordinates: [  0.300000000000000,  0.166666666666666,  0.572964387250448 ]
    mass: 72.640000
    reduced_to: 1
  - symbol: Ge # 49
    coordinates: [  0.400000000000000,  1.000000000000000,  0.572964387250448 ]
    mass: 72.640000
    reduced_to: 1
  - symbol: Ge # 50
    coordinates: [  0.500000000000000,  0.833333333333333,  0.572964387250448 ]
    mass: 72.640000
    reduced_to: 1
  - symbol: Ge # 51
    coordinates: [  0.600000000000000,  0.666666666666666,  0.572964387250448 ]
    mass: 72.640000
    reduced_to: 1
  - symbol: Ge # 52
    coordinates: [  0.700000000000000,  0.500000000000000,  0.572964387250448 ]
    mass: 72.640000
    reduced_to: 1
  - symbol: Ge # 53
    coordinates: [  0.800000000000000,  0.333333333333333,  0.572964387250448 ]
    mass: 72.640000
    reduced_to: 1
  - symbol: Ge # 54
    coordinates: [  0.900000000000000,  0.166666666666666,  0.572964387250448 ]
    mass: 72.640000
    reduced_to: 1
  - symbol: Ge # 55
    coordinates: [  0.800000000000000,  0.666666666666666,  0.572964387250448 ]
    mass: 72.640000
    reduced_to: 1
  - symbol: Ge # 56
    coordinates: [  0.900000000000000,  0.500000000000000,  0.572964387250448 ]
    mass: 72.640000
    reduced_to: 1
  - symbol: Ge # 57
    coordinates: [  1.000000000000000,  0.333333333333333,  0.572964387250448 ]
    mass: 72.640000
    reduced_to: 1
  - symbol: Ge # 58
    coordinates: [  0.900000000000000,  0.833333333333333,  0.572964387250448 ]
    mass: 72.640000
    reduced_to: 1
  - symbol: Ge # 59
    coordinates: [  1.000000000000000,  0.666666666666666,  0.572964387250448 ]
    mass: 72.640000
    reduced_to: 1
  - symbol: Ge # 60
    coordinates: [  0.100000000000000,  0.500000000000000,  0.572964387250448 ]
    mass: 72.640000
    reduced_to: 1
  - symbol: Ge # 61
    coordinates: [  0.100000000000000,  0.944444444444444,  0.906297720583782 ]
    mass: 72.640000
    reduced_to: 1
  - symbol: Ge # 62
    coordinates: [  0.200000000000000,  0.777777777777777,  0.906297720583782 ]
    mass: 72.640000
    reduced_to: 1
  - symbol: Ge # 63
    coordinates: [  0.300000000000000,  0.611111111111111,  0.906297720583782 ]
    mass: 72.640000
    reduced_to: 1
  - symbol: Ge # 64
    coordinates: [  0.400000000000000,  0.444444444444444,  0.906297720583782 ]
    mass: 72.640000
    reduced_to: 1
  - symbol: Ge # 65
    coordinates: [  0.500000000000000,  0.277777777777778,  0.906297720583782 ]
    mass: 72.640000
    reduced_to: 1
  - symbol: Ge # 66
    coordinates: [  0.600000000000000,  0.111111111111111,  0.906297720583782 ]
    mass: 72.640000
    reduced_to: 1
  - symbol: Ge # 67
    coordinates: [  0.700000000000000,  0.944444444444444,  0.906297720583782 ]
    mass: 72.640000
    reduced_to: 1
  - symbol: Ge # 68
    coordinates: [  0.800000000000000,  0.777777777777777,  0.906297720583782 ]
    mass: 72.640000
    reduced_to: 1
  - symbol: Ge # 69
    coordinates: [  0.200000000000000,  0.111111111111111,  0.906297720583782 ]
    mass: 72.640000
    reduced_to: 1
  - symbol: Ge # 70
    coordinates: [  0.300000000000000,  0.944444444444444,  0.906297720583782 ]
    mass: 72.640000
    reduced_to: 1
  - symbol: Ge # 71
    coordinates: [  0.400000000000000,  0.777777777777777,  0.906297720583782 ]
    mass: 72.640000
    reduced_to: 1
  - symbol: Ge # 72
    coordinates: [  0.500000000000000,  0.611111111111111,  0.906297720583782 ]
    mass: 72.640000
    reduced_to: 1
  - symbol: Ge # 73
    coordinates: [  0.600000000000000,  0.444444444444444,  0.906297720583782 ]
    mass: 72.640000
    reduced_to: 1
  - symbol: Ge # 74
    coordinates: [  0.700000000000000,  0.277777777777777,  0.906297720583782 ]
    mass: 72.640000
    reduced_to: 1
  - symbol: Ge # 75
    coordinates: [  0.799999999999999,  0.111111111111111,  0.906297720583782 ]
    mass: 72.640000
    reduced_to: 1
  - symbol: Ge # 76
    coordinates: [  0.900000000000000,  0.944444444444444,  0.906297720583782 ]
    mass: 72.640000
    reduced_to: 1
  - symbol: Ge # 77
    coordinates: [  0.300000000000000,  0.277777777777777,  0.906297720583782 ]
    mass: 72.640000
    reduced_to: 1
  - symbol: Ge # 78
    coordinates: [  0.400000000000000,  0.111111111111111,  0.906297720583782 ]
    mass: 72.640000
    reduced_to: 1
  - symbol: Ge # 79
    coordinates: [  0.500000000000000,  0.944444444444444,  0.906297720583782 ]
    mass: 72.640000
    reduced_to: 1
  - symbol: Ge # 80
    coordinates: [  0.600000000000000,  0.777777777777777,  0.906297720583782 ]
    mass: 72.640000
    reduced_to: 1
  - symbol: Ge # 81
    coordinates: [  0.700000000000000,  0.611111111111111,  0.906297720583782 ]
    mass: 72.640000
    reduced_to: 1
  - symbol: Ge # 82
    coordinates: [  0.800000000000000,  0.444444444444444,  0.906297720583782 ]
    mass: 72.640000
    reduced_to: 1
  - symbol: Ge # 83
    coordinates: [  0.900000000000000,  0.277777777777778,  0.906297720583782 ]
    mass: 72.640000
    reduced_to: 1
  - symbol: Ge # 84
    coordinates: [  1.000000000000000,  0.111111111111111,  0.906297720583782 ]
    mass: 72.640000
    reduced_to: 1
  - symbol: Ge # 85
    coordinates: [  0.900000000000000,  0.611111111111111,  0.906297720583782 ]
    mass: 72.640000
    reduced_to: 1
  - symbol: Ge # 86
    coordinates: [  1.000000000000000,  0.444444444444444,  0.906297720583782 ]
    mass: 72.640000
    reduced_to: 1
  - symbol: Ge # 87
    coordinates: [  0.100000000000000,  0.277777777777777,  0.906297720583782 ]
    mass: 72.640000
    reduced_to: 1
  - symbol: Ge # 88
    coordinates: [  1.000000000000000,  0.777777777777777,  0.906297720583782 ]
    mass: 72.640000
    reduced_to: 1
  - symbol: Ge # 89
    coordinates: [  0.100000000000000,  0.611111111111111,  0.906297720583782 ]
    mass: 72.640000
    reduced_to: 1
  - symbol: Ge # 90
    coordinates: [  0.200000000000000,  0.444444444444444,  0.906297720583782 ]
    mass: 72.640000
    reduced_to: 1
  - symbol: Sb # 91
    coordinates: [  0.100000000000000,  0.055555555555555,  0.091038808322533 ]
    mass: 121.760000
    reduced_to: 91
  - symbol: Sb # 92
    coordinates: [  0.200000000000000,  0.888888888888888,  0.091038808322533 ]
    mass: 121.760000
    reduced_to: 91
  - symbol: Sb # 93
    coordinates: [  0.300000000000000,  0.722222222222221,  0.091038808322533 ]
    mass: 121.760000
    reduced_to: 91
  - symbol: Sb # 94
    coordinates: [  0.400000000000000,  0.555555555555555,  0.091038808322533 ]
    mass: 121.760000
    reduced_to: 91
  - symbol: Sb # 95
    coordinates: [  0.500000000000000,  0.388888888888888,  0.091038808322533 ]
    mass: 121.760000
    reduced_to: 91
  - symbol: Sb # 96
    coordinates: [  0.600000000000000,  0.222222222222221,  0.091038808322533 ]
    mass: 121.760000
    reduced_to: 91
  - symbol: Sb # 97
    coordinates: [  0.700000000000000,  0.055555555555555,  0.091038808322533 ]
    mass: 121.760000
    reduced_to: 91
  - symbol: Sb # 98
    coordinates: [  0.800000000000000,  0.888888888888888,  0.091038808322533 ]
    mass: 121.760000
    reduced_to: 91
  - symbol: Sb # 99
    coordinates: [  0.200000000000000,  0.222222222222221,  0.091038808322533 ]
    mass: 121.760000
    reduced_to: 91
  - symbol: Sb # 100
    coordinates: [  0.300000000000000,  0.055555555555555,  0.091038808322533 ]
    mass: 121.760000
    reduced_to: 91
  - symbol: Sb # 101
    coordinates: [  0.400000000000000,  0.888888888888888,  0.091038808322533 ]
    mass: 121.760000
    reduced_to: 91
  - symbol: Sb # 102
    coordinates: [  0.500000000000000,  0.722222222222221,  0.091038808322533 ]
    mass: 121.760000
    reduced_to: 91
  - symbol: Sb # 103
    coordinates: [  0.600000000000000,  0.555555555555555,  0.091038808322533 ]
    mass: 121.760000
    reduced_to: 91
  - symbol: Sb # 104
    coordinates: [  0.700000000000000,  0.388888888888888,  0.091038808322533 ]
    mass: 121.760000
    reduced_to: 91
  - symbol: Sb # 105
    coordinates: [  0.800000000000000,  0.222222222222221,  0.091038808322533 ]
    mass: 121.760000
    reduced_to: 91
  - symbol: Sb # 106
    coordinates: [  0.900000000000000,  0.055555555555555,  0.091038808322533 ]
    mass: 121.760000
    reduced_to: 91
  - symbol: Sb # 107
    coordinates: [  0.300000000000000,  0.388888888888888,  0.091038808322533 ]
    mass: 121.760000
    reduced_to: 91
  - symbol: Sb # 108
    coordinates: [  0.400000000000000,  0.222222222222221,  0.091038808322533 ]
    mass: 121.760000
    reduced_to: 91
  - symbol: Sb # 109
    coordinates: [  0.500000000000000,  0.055555555555555,  0.091038808322533 ]
    mass: 121.760000
    reduced_to: 91
  - symbol: Sb # 110
    coordinates: [  0.600000000000000,  0.888888888888888,  0.091038808322533 ]
    mass: 121.760000
    reduced_to: 91
  - symbol: Sb # 111
    coordinates: [  0.700000000000000,  0.722222222222221,  0.091038808322533 ]
    mass: 121.760000
    reduced_to: 91
  - symbol: Sb # 112
    coordinates: [  0.800000000000000,  0.555555555555555,  0.091038808322533 ]
    mass: 121.760000
    reduced_to: 91
  - symbol: Sb # 113
    coordinates: [  0.900000000000000,  0.388888888888888,  0.091038808322533 ]
    mass: 121.760000
    reduced_to: 91
  - symbol: Sb # 114
    coordinates: [  1.000000000000000,  0.222222222222221,  0.091038808322533 ]
    mass: 121.760000
    reduced_to: 91
  - symbol: Sb # 115
    coordinates: [  0.900000000000000,  0.722222222222221,  0.091038808322533 ]
    mass: 121.760000
    reduced_to: 91
  - symbol: Sb # 116
    coordinates: [  1.000000000000000,  0.555555555555555,  0.091038808322533 ]
    mass: 121.760000
    reduced_to: 91
  - symbol: Sb # 117
    coordinates: [  0.100000000000000,  0.388888888888888,  0.091038808322533 ]
    mass: 121.760000
    reduced_to: 91
  - symbol: Sb # 118
    coordinates: [  1.000000000000000,  0.888888888888888,  0.091038808322533 ]
    mass: 121.760000
    reduced_to: 91
  - symbol: Sb # 119
    coordinates: [  0.100000000000000,  0.722222222222221,  0.091038808322533 ]
    mass: 121.760000
    reduced_to: 91
  - symbol: Sb # 120
    coordinates: [  0.200000000000000,  0.555555555555555,  0.091038808322533 ]
    mass: 121.760000
    reduced_to: 91
  - symbol: Sb # 121
    coordinates: [  0.100000000000000,  0.944444444444443,  0.330868250323668 ]
    mass: 121.760000
    reduced_to: 121
  - symbol: Sb # 122
    coordinates: [  0.200000000000000,  0.777777777777777,  0.330868250323668 ]
    mass: 121.760000
    reduced_to: 121
  - symbol: Sb # 123
    coordinates: [  0.300000000000000,  0.611111111111110,  0.330868250323668 ]
    mass: 121.760000
    reduced_to: 121
  - symbol: Sb # 124
    coordinates: [  0.400000000000000,  0.444444444444444,  0.330868250323668 ]
    mass: 121.760000
    reduced_to: 121
  - symbol: Sb # 125
    coordinates: [  0.500000000000000,  0.277777777777777,  0.330868250323668 ]
    mass: 121.760000
    reduced_to: 121
  - symbol: Sb # 126
    coordinates: [  0.600000000000000,  0.111111111111110,  0.330868250323668 ]
    mass: 121.760000
    reduced_to: 121
  - symbol: Sb # 127
    coordinates: [  0.700000000000000,  0.944444444444444,  0.330868250323668 ]
    mass: 121.760000
    reduced_to: 121
  - symbol: Sb # 128
    coordinates: [  0.800000000000000,  0.777777777777777,  0.330868250323668 ]
    mass: 121.760000
    reduced_to: 121
  - symbol: Sb # 129
    coordinates: [  0.200000000000000,  0.111111111111110,  0.330868250323668 ]
    mass: 121.760000
    reduced_to: 121
  - symbol: Sb # 130
    coordinates: [  0.300000000000000,  0.944444444444443,  0.330868250323668 ]
    mass: 121.760000
    reduced_to: 121
  - symbol: Sb # 131
    coordinates: [  0.400000000000000,  0.777777777777777,  0.330868250323668 ]
    mass: 121.760000
    reduced_to: 121
  - symbol: Sb # 132
    coordinates: [  0.500000000000000,  0.611111111111110,  0.330868250323668 ]
    mass: 121.760000
    reduced_to: 121
  - symbol: Sb # 133
    coordinates: [  0.600000000000000,  0.444444444444443,  0.330868250323668 ]
    mass: 121.760000
    reduced_to: 121
  - symbol: Sb # 134
    coordinates: [  0.700000000000000,  0.277777777777777,  0.330868250323668 ]
    mass: 121.760000
    reduced_to: 121
  - symbol: Sb # 135
    coordinates: [  0.800000000000000,  0.111111111111110,  0.330868250323668 ]
    mass: 121.760000
    reduced_to: 121
  - symbol: Sb # 136
    coordinates: [  0.900000000000000,  0.944444444444443,  0.330868250323668 ]
    mass: 121.760000
    reduced_to: 121
  - symbol: Sb # 137
    coordinates: [  0.300000000000000,  0.277777777777777,  0.330868250323668 ]
    mass: 121.760000
    reduced_to: 121
  - symbol: Sb # 138
    coordinates: [  0.400000000000000,  0.111111111111110,  0.330868250323668 ]
    mass: 121.760000
    reduced_to: 121
  - symbol: Sb # 139
    coordinates: [  0.500000000000000,  0.944444444444443,  0.330868250323668 ]
    mass: 121.760000
    reduced_to: 121
  - symbol: Sb # 140
    coordinates: [  0.600000000000000,  0.777777777777777,  0.330868250323668 ]
    mass: 121.760000
    reduced_to: 121
  - symbol: Sb # 141
    coordinates: [  0.700000000000000,  0.611111111111110,  0.330868250323668 ]
    mass: 121.760000
    reduced_to: 121
  - symbol: Sb # 142
    coordinates: [  0.800000000000000,  0.444444444444443,  0.330868250323668 ]
    mass: 121.760000
    reduced_to: 121
  - symbol: Sb # 143
    coordinates: [  0.900000000000000,  0.277777777777777,  0.330868250323668 ]
    mass: 121.760000
    reduced_to: 121
  - symbol: Sb # 144
    coordinates: [  1.000000000000000,  0.111111111111110,  0.330868250323668 ]
    mass: 121.760000
    reduced_to: 121
  - symbol: Sb # 145
    coordinates: [  0.900000000000000,  0.611111111111110,  0.330868250323668 ]
    mass: 121.760000
    reduced_to: 121
  - symbol: Sb # 146
    coordinates: [  1.000000000000000,  0.444444444444443,  0.330868250323668 ]
    mass: 121.760000
    reduced_to: 121
  - symbol: Sb # 147
    coordinates: [  0.100000000000000,  0.277777777777777,  0.330868250323668 ]
    mass: 121.760000
    reduced_to: 121
  - symbol: Sb # 148
    coordinates: [  1.000000000000000,  0.777777777777777,  0.330868250323668 ]
    mass: 121.760000
    reduced_to: 121
  - symbol: Sb # 149
    coordinates: [  0.100000000000000,  0.611111111111110,  0.330868250323668 ]
    mass: 121.760000
    reduced_to: 121
  - symbol: Sb # 150
    coordinates: [  0.200000000000000,  0.444444444444443,  0.330868250323668 ]
    mass: 121.760000
    reduced_to: 121
  - symbol: Sb # 151
    coordinates: [  1.000000000000000,  0.999999999999999,  0.424372141655866 ]
    mass: 121.760000
    reduced_to: 91
  - symbol: Sb # 152
    coordinates: [  0.100000000000000,  0.833333333333332,  0.424372141655866 ]
    mass: 121.760000
    reduced_to: 91
  - symbol: Sb # 153
    coordinates: [  0.200000000000000,  0.666666666666666,  0.424372141655866 ]
    mass: 121.760000
    reduced_to: 91
  - symbol: Sb # 154
    coordinates: [  0.300000000000000,  0.499999999999999,  0.424372141655866 ]
    mass: 121.760000
    reduced_to: 91
  - symbol: Sb # 155
    coordinates: [  0.400000000000000,  0.333333333333332,  0.424372141655866 ]
    mass: 121.760000
    reduced_to: 91
  - symbol: Sb # 156
    coordinates: [  0.500000000000000,  0.166666666666666,  0.424372141655866 ]
    mass: 121.760000
    reduced_to: 91
  - symbol: Sb # 157
    coordinates: [  0.600000000000000,  0.999999999999999,  0.424372141655866 ]
    mass: 121.760000
    reduced_to: 91
  - symbol: Sb # 158
    coordinates: [  0.700000000000000,  0.833333333333332,  0.424372141655866 ]
    mass: 121.760000
    reduced_to: 91
  - symbol: Sb # 159
    coordinates: [  0.100000000000000,  0.166666666666666,  0.424372141655866 ]
    mass: 121.760000
    reduced_to: 91
  - symbol: Sb # 160
    coordinates: [  0.200000000000000,  0.999999999999999,  0.424372141655866 ]
    mass: 121.760000
    reduced_to: 91
  - symbol: Sb # 161
    coordinates: [  0.300000000000000,  0.833333333333332,  0.424372141655866 ]
    mass: 121.760000
    reduced_to: 91
  - symbol: Sb # 162
    coordinates: [  0.400000000000000,  0.666666666666666,  0.424372141655866 ]
    mass: 121.760000
    reduced_to: 91
  - symbol: Sb # 163
    coordinates: [  0.500000000000000,  0.499999999999999,  0.424372141655866 ]
    mass: 121.760000
    reduced_to: 91
  - symbol: Sb # 164
    coordinates: [  0.600000000000000,  0.333333333333332,  0.424372141655866 ]
    mass: 121.760000
    reduced_to: 91
  - symbol: Sb # 165
    coordinates: [  0.700000000000000,  0.166666666666666,  0.424372141655866 ]
    mass: 121.760000
    reduced_to: 91
  - symbol: Sb # 166
    coordinates: [  0.800000000000000,  0.999999999999999,  0.424372141655866 ]
    mass: 121.760000
    reduced_to: 91
  - symbol: Sb # 167
    coordinates: [  0.200000000000000,  0.333333333333332,  0.424372141655866 ]
    mass: 121.760000
    reduced_to: 91
  - symbol: Sb # 168
    coordinates: [  0.300000000000000,  0.166666666666666,  0.424372141655866 ]
    mass: 121.760000
    reduced_to: 91
  - symbol: Sb # 169
    coordinates: [  0.400000000000000,  0.999999999999999,  0.424372141655866 ]
    mass: 121.760000
    reduced_to: 91
  - symbol: Sb # 170
    coordinates: [  0.500000000000000,  0.833333333333332,  0.424372141655866 ]
    mass: 121.760000
    reduced_to: 91
  - symbol: Sb # 171
    coordinates: [  0.600000000000000,  0.666666666666666,  0.424372141655866 ]
    mass: 121.760000
    reduced_to: 91
  - symbol: Sb # 172
    coordinates: [  0.700000000000000,  0.499999999999999,  0.424372141655866 ]
    mass: 121.760000
    reduced_to: 91
  - symbol: Sb # 173
    coordinates: [  0.800000000000000,  0.333333333333332,  0.424372141655866 ]
    mass: 121.760000
    reduced_to: 91
  - symbol: Sb # 174
    coordinates: [  0.900000000000000,  0.166666666666666,  0.424372141655866 ]
    mass: 121.760000
    reduced_to: 91
  - symbol: Sb # 175
    coordinates: [  0.800000000000000,  0.666666666666666,  0.424372141655866 ]
    mass: 121.760000
    reduced_to: 91
  - symbol: Sb # 176
    coordinates: [  0.900000000000000,  0.499999999999999,  0.424372141655866 ]
    mass: 121.760000
    reduced_to: 91
  - symbol: Sb # 177
    coordinates: [  1.000000000000000,  0.333333333333332,  0.424372141655866 ]