phonopy:
  version: "2.27.0"
  frequency_unit_conversion_factor: 15.633302
  symmetry_tolerance: 1.00000e-03

space_group:
  type: "Pnma"
  number: 62
  Hall_symbol: "-P 2ac 2n"

primitive_matrix:
- [  0.000000000000000, -1.000000000000000, -0.000000000000000 ]
- [  1.000000000000000, -0.000000000000000, -0.000000000000000 ]
- [  0.000000000000000,  0.000000000000000,  1.000000000000000 ]

supercell_matrix:
- [   5,   0,   0 ]
- [   0,   2,   0 ]
- [   0,   0,   2 ]

primitive_cell:
  lattice:
  - [    -0.000000000000057,    10.047739917370837,     0.000000000000011 ] # a
  - [    -4.453339929506008,     0.000000000000009,    -0.000000000000002 ] # b
  - [     0.000000000000013,    -0.000000000000005,    11.706457620761888 ] # c
  points:
  - symbol: Ba # 1
    coordinates: [  0.757132739123928,  0.249999999999981,  0.177872814184565 ]
    mass: 137.327000
  - symbol: Ba # 2
    coordinates: [  0.242867260876067,  0.750000000000015,  0.822127185815435 ]
    mass: 137.327000
  - symbol: Ba # 3
    coordinates: [  0.257132739123928,  0.249999999999980,  0.322127185815435 ]
    mass: 137.327000
  - symbol: Ba # 4
    coordinates: [  0.742867260876068,  0.750000000000016,  0.677872814184565 ]
    mass: 137.327000
  - symbol: Cu # 5
    coordinates: [  0.076056271741437,  0.750000000000052,  0.543517093267437 ]
    mass: 63.546000
  - symbol: Cu # 6
    coordinates: [  0.923943728258559,  0.249999999999943,  0.456482906732563 ]
    mass: 63.546000
  - symbol: Cu # 7
    coordinates: [  0.423943728258559,  0.249999999999935,  0.043517093267437 ]
    mass: 63.546000
  - symbol: Cu # 8
    coordinates: [  0.576056271741437,  0.750000000000061,  0.956482906732563 ]
    mass: 63.546000
  - symbol: Cu # 9
    coordinates: [  0.945673327688137,  0.249999999999991,  0.883175333651636 ]
    mass: 63.546000
  - symbol: Cu # 10
    coordinates: [  0.054326672311859,  0.750000000000005,  0.116824666348364 ]
    mass: 63.546000
  - symbol: Cu # 11
    coordinates: [  0.445673327688137,  0.249999999999990,  0.616824666348364 ]
    mass: 63.546000
  - symbol: Cu # 12
    coordinates: [  0.554326672311859,  0.750000000000006,  0.383175333651636 ]
    mass: 63.546000
  - symbol: Te # 13
    coordinates: [  0.842001624661814,  0.749999999999994,  0.961578485006209 ]
    mass: 127.600000
  - symbol: Te # 14
    coordinates: [  0.157998375338182,  0.250000000000001,  0.038421514993791 ]
    mass: 127.600000
  - symbol: Te # 15
    coordinates: [  0.657998375338182,  0.250000000000002,  0.461578485006209 ]
    mass: 127.600000
  - symbol: Te # 16
    coordinates: [  0.342001624661814,  0.749999999999993,  0.538421514993791 ]
    mass: 127.600000
  - symbol: Te # 17
    coordinates: [  0.523773652294303,  0.250000000000038,  0.831684532096310 ]
    mass: 127.600000
  - symbol: Te # 18
    coordinates: [  0.476226347705693,  0.749999999999958,  0.168315467903690 ]
    mass: 127.600000
  - symbol: Te # 19
    coordinates: [  0.023773652294303,  0.250000000000034,  0.668315467903690 ]
    mass: 127.600000
  - symbol: Te # 20
    coordinates: [  0.976226347705693,  0.749999999999962,  0.331684532096310 ]
    mass: 127.600000
  reciprocal_lattice: # without 2pi
  - [     0.000000000000000,     0.099524869097295,     0.000000000000000 ] # a*
  - [    -0.224550565604572,    -0.000000000000001,     0.000000000000000 ] # b*
  - [    -0.000000000000000,    -0.000000000000000,     0.085422937697776 ] # c*

unit_cell:
  lattice:
  - [     4.453339929506008,    -0.000000000000009,     0.000000000000002 ] # a
  - [    -0.000000000000057,    10.047739917370837,     0.000000000000011 ] # b
  - [     0.000000000000013,    -0.000000000000005,    11.706457620761888 ] # c
  points:
  - symbol: Ba # 1
    coordinates: [  0.750000000000019,  0.757132739123928,  0.177872814184565 ]
    mass: 137.327000
    reduced_to: 1
  - symbol: Ba # 2
    coordinates: [  0.249999999999985,  0.242867260876067,  0.822127185815435 ]
    mass: 137.327000
    reduced_to: 2
  - symbol: Ba # 3
    coordinates: [  0.750000000000020,  0.257132739123928,  0.322127185815435 ]
    mass: 137.327000
    reduced_to: 3
  - symbol: Ba # 4
    coordinates: [  0.249999999999984,  0.742867260876068,  0.677872814184565 ]
    mass: 137.327000
    reduced_to: 4
  - symbol: Cu # 5
    coordinates: [  0.249999999999948,  0.076056271741437,  0.543517093267437 ]
    mass: 63.546000
    reduced_to: 5
  - symbol: Cu # 6
    coordinates: [  0.750000000000057,  0.923943728258559,  0.456482906732563 ]
    mass: 63.546000
    reduced_to: 6
  - symbol: Cu # 7
    coordinates: [  0.750000000000064,  0.423943728258559,  0.043517093267437 ]
    mass: 63.546000
    reduced_to: 7
  - symbol: Cu # 8
    coordinates: [  0.249999999999939,  0.576056271741437,  0.956482906732563 ]
    mass: 63.546000
    reduced_to: 8
  - symbol: Cu # 9
    coordinates: [  0.750000000000009,  0.945673327688137,  0.883175333651636 ]
    mass: 63.546000
    reduced_to: 9
  - symbol: Cu # 10
    coordinates: [  0.249999999999995,  0.054326672311859,  0.116824666348364 ]
    mass: 63.546000
    reduced_to: 10
  - symbol: Cu # 11
    coordinates: [  0.750000000000010,  0.445673327688137,  0.616824666348364 ]
    mass: 63.546000
    reduced_to: 11
  - symbol: Cu # 12
    coordinates: [  0.249999999999994,  0.554326672311859,  0.383175333651636 ]
    mass: 63.546000
    reduced_to: 12
  - symbol: Te # 13
    coordinates: [  0.250000000000006,  0.842001624661814,  0.961578485006209 ]
    mass: 127.600000
    reduced_to: 13
  - symbol: Te # 14
    coordinates: [  0.749999999999999,  0.157998375338182,  0.038421514993791 ]
    mass: 127.600000
    reduced_to: 14
  - symbol: Te # 15
    coordinates: [  0.749999999999998,  0.657998375338182,  0.461578485006209 ]
    mass: 127.600000
    reduced_to: 15
  - symbol: Te # 16
    coordinates: [  0.250000000000007,  0.342001624661814,  0.538421514993791 ]
    mass: 127.600000
    reduced_to: 16
  - symbol: Te # 17
    coordinates: [  0.749999999999962,  0.523773652294303,  0.831684532096310 ]
    mass: 127.600000
    reduced_to: 17
  - symbol: Te # 18
    coordinates: [  0.250000000000042,  0.476226347705693,  0.168315467903690 ]
    mass: 127.600000
    reduced_to: 18
  - symbol: Te # 19
    coordinates: [  0.749999999999966,  0.023773652294303,  0.668315467903690 ]
    mass: 127.600000
    reduced_to: 19
  - symbol: Te # 20
    coordinates: [  0.250000000000038,  0.976226347705693,  0.331684532096310 ]
    mass: 127.600000
    reduced_to: 20

supercell:
  lattice:
  - [    22.266699647530039,    -0.000000000000045,     0.000000000000009 ] # a
  - [    -0.000000000000113,    20.095479834741674,     0.000000000000022 ] # b
  - [     0.000000000000026,    -0.000000000000011,    23.412915241523777 ] # c
  points:
  - symbol: Ba # 1
    coordinates: [  0.150000000000004,  0.378566369561964,  0.088936407092283 ]
    mass: 137.327000
    reduced_to: 1
  - symbol: Ba # 2
    coordinates: [  0.350000000000004,  0.378566369561964,  0.088936407092283 ]
    mass: 137.327000
    reduced_to: 1
  - symbol: Ba # 3
    coordinates: [  0.550000000000004,  0.378566369561964,  0.088936407092283 ]
    mass: 137.327000
    reduced_to: 1
  - symbol: Ba # 4
    coordinates: [  0.750000000000004,  0.378566369561964,  0.088936407092283 ]
    mass: 137.327000
    reduced_to: 1
  - symbol: Ba # 5
    coordinates: [  0.950000000000004,  0.378566369561964,  0.088936407092283 ]
    mass: 137.327000
    reduced_to: 1
  - symbol: Ba # 6
    coordinates: [  0.150000000000004,  0.878566369561964,  0.088936407092283 ]
    mass: 137.327000
    reduced_to: 1
  - symbol: Ba # 7
    coordinates: [  0.350000000000004,  0.878566369561964,  0.088936407092283 ]
    mass: 137.327000
    reduced_to: 1
  - symbol: Ba # 8
    coordinates: [  0.550000000000004,  0.878566369561964,  0.088936407092283 ]
    mass: 137.327000
    reduced_to: 1
  - symbol: Ba # 9
    coordinates: [  0.750000000000004,  0.878566369561964,  0.088936407092283 ]
    mass: 137.327000
    reduced_to: 1
  - symbol: Ba # 10
    coordinates: [  0.950000000000004,  0.878566369561964,  0.088936407092283 ]
    mass: 137.327000
    reduced_to: 1
  - symbol: Ba # 11
    coordinates: [  0.150000000000004,  0.378566369561964,  0.588936407092283 ]
    mass: 137.327000
    reduced_to: 1
  - symbol: Ba # 12
    coordinates: [  0.350000000000004,  0.378566369561964,  0.588936407092283 ]
    mass: 137.327000
    reduced_to: 1
  - symbol: Ba # 13
    coordinates: [  0.550000000000004,  0.378566369561964,  0.588936407092283 ]
    mass: 137.327000
    reduced_to: 1
  - symbol: Ba # 14
    coordinates: [  0.750000000000004,  0.378566369561964,  0.588936407092283 ]
    mass: 137.327000
    reduced_to: 1
  - symbol: Ba # 15
    coordinates: [  0.950000000000004,  0.378566369561964,  0.588936407092283 ]
    mass: 137.327000
    reduced_to: 1
  - symbol: Ba # 16
    coordinates: [  0.150000000000004,  0.878566369561964,  0.588936407092283 ]
    mass: 137.327000
    reduced_to: 1
  - symbol: Ba # 17
    coordinates: [  0.350000000000004,  0.878566369561964,  0.588936407092283 ]
    mass: 137.327000
    reduced_to: 1
  - symbol: Ba # 18
    coordinates: [  0.550000000000004,  0.878566369561964,  0.588936407092283 ]
    mass: 137.327000
    reduced_to: 1
  - symbol: Ba # 19
    coordinates: [  0.750000000000004,  0.878566369561964,  0.588936407092283 ]
    mass: 137.327000
    reduced_to: 1
  - symbol: Ba # 20
    coordinates: [  0.950000000000004,  0.878566369561964,  0.588936407092283 ]
    mass: 137.327000
    reduced_to: 1
  - symbol: Ba # 21
    coordinates: [  0.049999999999997,  0.121433630438034,  0.411063592907718 ]
    mass: 137.327000
    reduced_to: 21
  - symbol: Ba # 22
    coordinates: [  0.249999999999997,  0.121433630438034,  0.411063592907718 ]
    mass: 137.327000
    reduced_to: 21
  - symbol: Ba # 23
    coordinates: [  0.449999999999997,  0.121433630438034,  0.411063592907718 ]
    mass: 137.327000
    reduced_to: 21
  - symbol: Ba # 24
    coordinates: [  0.649999999999997,  0.121433630438034,  0.411063592907718 ]
    mass: 137.327000
    reduced_to: 21
  - symbol: Ba # 25
    coordinates: [  0.849999999999997,  0.121433630438034,  0.411063592907718 ]
    mass: 137.327000
    reduced_to: 21
  - symbol: Ba # 26
    coordinates: [  0.049999999999997,  0.621433630438034,  0.411063592907718 ]
    mass: 137.327000
    reduced_to: 21
  - symbol: Ba # 27
    coordinates: [  0.249999999999997,  0.621433630438034,  0.411063592907718 ]
    mass: 137.327000
    reduced_to: 21
  - symbol: Ba # 28
    coordinates: [  0.449999999999997,  0.621433630438034,  0.411063592907718 ]
    mass: 137.327000
    reduced_to: 21
  - symbol: Ba # 29
    coordinates: [  0.649999999999997,  0.621433630438034,  0.411063592907718 ]
    mass: 137.327000
    reduced_to: 21
  - symbol: Ba # 30
    coordinates: [  0.849999999999997,  0.621433630438034,  0.411063592907718 ]
    mass: 137.327000
    reduced_to: 21
  - symbol: Ba # 31
    coordinates: [  0.049999999999997,  0.121433630438034,  0.911063592907718 ]
    mass: 137.327000
    reduced_to: 21
  - symbol: Ba # 32
    coordinates: [  0.249999999999997,  0.121433630438034,  0.911063592907718 ]
    mass: 137.327000
    reduced_to: 21
  - symbol: Ba # 33
    coordinates: [  0.449999999999997,  0.121433630438034,  0.911063592907718 ]
    mass: 137.327000
    reduced_to: 21
  - symbol: Ba # 34
    coordinates: [  0.649999999999997,  0.121433630438034,  0.911063592907718 ]
    mass: 137.327000
    reduced_to: 21
  - symbol: Ba # 35
    coordinates: [  0.849999999999997,  0.121433630438034,  0.911063592907718 ]
    mass: 137.327000
    reduced_to: 21
  - symbol: Ba # 36
    coordinates: [  0.049999999999997,  0.621433630438034,  0.911063592907718 ]
    mass: 137.327000
    reduced_to: 21
  - symbol: Ba # 37
    coordinates: [  0.249999999999997,  0.621433630438034,  0.911063592907718 ]
    mass: 137.327000
    reduced_to: 21
  - symbol: Ba # 38
    coordinates: [  0.449999999999997,  0.621433630438034,  0.911063592907718 ]
    mass: 137.327000
    reduced_to: 21
  - symbol: Ba # 39
    coordinates: [  0.649999999999997,  0.621433630438034,  0.911063592907718 ]
    mass: 137.327000
    reduced_to: 21
  - symbol: Ba # 40
    coordinates: [  0.849999999999997,  0.621433630438034,  0.911063592907718 ]
    mass: 137.327000
    reduced_to: 21
  - symbol: Ba # 41
    coordinates: [  0.150000000000004,  0.128566369561964,  0.161063592907717 ]
    mass: 137.327000
    reduced_to: 41
  - symbol: Ba # 42
    coordinates: [  0.350000000000004,  0.128566369561964,  0.161063592907717 ]
    mass: 137.327000
    reduced_to: 41
  - symbol: Ba # 43
    coordinates: [  0.550000000000004,  0.128566369561964,  0.161063592907717 ]
    mass: 137.327000
    reduced_to: 41
  - symbol: Ba # 44
    coordinates: [  0.750000000000004,  0.128566369561964,  0.161063592907717 ]
    mass: 137.327000
    reduced_to: 41
  - symbol: Ba # 45
    coordinates: [  0.950000000000004,  0.128566369561964,  0.161063592907717 ]
    mass: 137.327000
    reduced_to: 41
  - symbol: Ba # 46
    coordinates: [  0.150000000000004,  0.628566369561964,  0.161063592907717 ]
    mass: 137.327000
    reduced_to: 41
  - symbol: Ba # 47
    coordinates: [  0.350000000000004,  0.628566369561964,  0.161063592907717 ]
    mass: 137.327000
    reduced_to: 41
  - symbol: Ba # 48
    coordinates: [  0.550000000000004,  0.628566369561964,  0.161063592907717 ]
    mass: 137.327000
    reduced_to: 41
  - symbol: Ba # 49
    coordinates: [  0.750000000000004,  0.628566369561964,  0.161063592907717 ]
    mass: 137.327000
    reduced_to: 41
  - symbol: Ba # 50
    coordinates: [  0.950000000000004,  0.628566369561964,  0.161063592907717 ]
    mass: 137.327000
    reduced_to: 41
  - symbol: Ba # 51
    coordinates: [  0.150000000000004,  0.128566369561964,  0.661063592907717 ]
    mass: 137.327000
    reduced_to: 41
  - symbol: Ba # 52
    coordinates: [  0.350000000000004,  0.128566369561964,  0.661063592907717 ]
    mass: 137.327000
    reduced_to: 41
  - symbol: Ba # 53
    coordinates: [  0.550000000000004,  0.128566369561964,  0.661063592907717 ]
    mass: 137.327000
    reduced_to: 41
  - symbol: Ba # 54
    coordinates: [  0.750000000000004,  0.128566369561964,  0.661063592907717 ]
    mass: 137.327000
    reduced_to: 41
  - symbol: Ba # 55
    coordinates: [  0.950000000000004,  0.128566369561964,  0.661063592907717 ]
    mass: 137.327000
    reduced_to: 41
  - symbol: Ba # 56
    coordinates: [  0.150000000000004,  0.628566369561964,  0.661063592907717 ]
    mass: 137.327000
    reduced_to: 41
  - symbol: Ba # 57
    coordinates: [  0.350000000000004,  0.628566369561964,  0.661063592907717 ]
    mass: 137.327000
    reduced_to: 41
  - symbol: Ba # 58
    coordinates: [  0.550000000000004,  0.628566369561964,  0.661063592907717 ]
    mass: 137.327000
    reduced_to: 41
  - symbol: Ba # 59
    coordinates: [  0.750000000000004,  0.628566369561964,  0.661063592907717 ]
    mass: 137.327000
    reduced_to: 41
  - symbol: Ba # 60
    coordinates: [  0.950000000000004,  0.628566369561964,  0.661063592907717 ]
    mass: 137.327000
    reduced_to: 41
  - symbol: Ba # 61
    coordinates: [  0.049999999999997,  0.371433630438034,  0.338936407092283 ]
    mass: 137.327000
    reduced_to: 61
  - symbol: Ba # 62
    coordinates: [  0.249999999999997,  0.371433630438034,  0.338936407092283 ]
    mass: 137.327000
    reduced_to: 61
  - symbol: Ba # 63
    coordinates: [  0.449999999999997,  0.371433630438034,  0.338936407092283 ]
    mass: 137.327000
    reduced_to: 61
  - symbol: Ba # 64
    coordinates: [  0.649999999999997,  0.371433630438034,  0.338936407092283 ]
    mass: 137.327000
    reduced_to: 61
  - symbol: Ba # 65
    coordinates: [  0.849999999999997,  0.371433630438034,  0.338936407092283 ]
    mass: 137.327000
    reduced_to: 61
  - symbol: Ba # 66
    coordinates: [  0.049999999999997,  0.871433630438034,  0.338936407092283 ]
    mass: 137.327000
    reduced_to: 61
  - symbol: Ba # 67
    coordinates: [  0.249999999999997,  0.871433630438034,  0.338936407092283 ]
    mass: 137.327000
    reduced_to: 61
  - symbol: Ba # 68
    coordinates: [  0.449999999999997,  0.871433630438034,  0.338936407092283 ]
    mass: 137.327000
    reduced_to: 61
  - symbol: Ba # 69
    coordinates: [  0.649999999999997,  0.871433630438034,  0.338936407092283 ]
    mass: 137.327000
    reduced_to: 61
  - symbol: Ba # 70
    coordinates: [  0.849999999999997,  0.871433630438034,  0.338936407092283 ]
    mass: 137.327000
    reduced_to: 61
  - symbol: Ba # 71
    coordinates: [  0.049999999999997,  0.371433630438034,  0.838936407092283 ]
    mass: 137.327000
    reduced_to: 61
  - symbol: Ba # 72
    coordinates: [  0.249999999999997,  0.371433630438034,  0.838936407092283 ]
    mass: 137.327000
    reduced_to: 61
  - symbol: Ba # 73
    coordinates: [  0.449999999999997,  0.371433630438034,  0.838936407092283 ]
    mass: 137.327000
    reduced_to: 61
  - symbol: Ba # 74
    coordinates: [  0.649999999999997,  0.371433630438034,  0.838936407092283 ]
    mass: 137.327000
    reduced_to: 61
  - symbol: Ba # 75
    coordinates: [  0.849999999999997,  0.371433630438034,  0.838936407092283 ]
    mass: 137.327000
    reduced_to: 61
  - symbol: Ba # 76
    coordinates: [  0.049999999999997,  0.871433630438034,  0.838936407092283 ]
    mass: 137.327000
    reduced_to: 61
  - symbol: Ba # 77
    coordinates: [  0.249999999999997,  0.871433630438034,  0.838936407092283 ]
    mass: 137.327000
    reduced_to: 61
  - symbol: Ba # 78
    coordinates: [  0.449999999999997,  0.871433630438034,  0.838936407092283 ]
    mass: 137.327000
    reduced_to: 61
  - symbol: Ba # 79
    coordinates: [  0.649999999999997,  0.871433630438034,  0.838936407092283 ]
    mass: 137.327000
    reduced_to: 61
  - symbol: Ba # 80
    coordinates: [  0.849999999999997,  0.871433630438034,  0.838936407092283 ]
    mass: 137.327000
    reduced_to: 61
  - symbol: Cu # 81
    coordinates: [  0.049999999999990,  0.038028135870719,  0.271758546633719 ]
    mass: 63.546000
    reduced_to: 81
  - symbol: Cu # 82
    coordinates: [  0.249999999999990,  0.038028135870719,  0.271758546633719 ]
    mass: 63.546000
    reduced_to: 81
  - symbol: Cu # 83
    coordinates: [  0.449999999999990,  0.038028135870719,  0.271758546633719 ]
    mass: 63.546000
    reduced_to: 81
  - symbol: Cu # 84
    coordinates: [  0.649999999999990,  0.038028135870719,  0.271758546633719 ]
    mass: 63.546000
    reduced_to: 81
  - symbol: Cu # 85
    coordinates: [  0.849999999999990,  0.038028135870719,  0.271758546633719 ]
    mass: 63.546000
    reduced_to: 81
  - symbol: Cu # 86
    coordinates: [  0.049999999999990,  0.538028135870719,  0.271758546633719 ]
    mass: 63.546000
    reduced_to: 81
  - symbol: Cu # 87
    coordinates: [  0.249999999999990,  0.538028135870719,  0.271758546633719 ]
    mass: 63.546000
    reduced_to: 81
  - symbol: Cu # 88
    coordinates: [  0.449999999999990,  0.538028135870719,  0.271758546633719 ]
    mass: 63.546000
    reduced_to: 81
  - symbol: Cu # 89
    coordinates: [  0.649999999999990,  0.538028135870719,  0.271758546633719 ]
    mass: 63.546000
    reduced_to: 81
  - symbol: Cu # 90
    coordinates: [  0.849999999999990,  0.538028135870719,  0.271758546633719 ]
    mass: 63.546000
    reduced_to: 81
  - symbol: Cu # 91
    coordinates: [  0.049999999999990,  0.038028135870719,  0.771758546633719 ]
    mass: 63.546000
    reduced_to: 81
  - symbol: Cu # 92
    coordinates: [  0.249999999999990,  0.038028135870719,  0.771758546633719 ]
    mass: 63.546000
    reduced_to: 81
  - symbol: Cu # 93
    coordinates: [  0.449999999999990,  0.038028135870719,  0.771758546633719 ]
    mass: 63.546000
    reduced_to: 81
  - symbol: Cu # 94
    coordinates: [  0.649999999999990,  0.038028135870719,  0.771758546633719 ]
    mass: 63.546000
    reduced_to: 81
  - symbol: Cu # 95
    coordinates: [  0.849999999999990,  0.038028135870719,  0.771758546633719 ]
    mass: 63.546000
    reduced_to: 81
  - symbol: Cu # 96
    coordinates: [  0.049999999999990,  0.538028135870719,  0.771758546633719 ]
    mass: 63.546000
    reduced_to: 81
  - symbol: Cu # 97
    coordinates: [  0.249999999999990,  0.538028135870719,  0.771758546633719 ]
    mass: 63.546000
    reduced_to: 81
  - symbol: Cu # 98
    coordinates: [  0.449999999999990,  0.538028135870719,  0.771758546633719 ]
    mass: 63.546000
    reduced_to: 81
  - symbol: Cu # 99
    coordinates: [  0.649999999999990,  0.538028135870719,  0.771758546633719 ]
    mass: 63.546000
    reduced_to: 81
  - symbol: Cu # 100
    coordinates: [  0.849999999999990,  0.538028135870719,  0.771758546633719 ]
    mass: 63.546000
    reduced_to: 81
  - symbol: Cu # 101
    coordinates: [  0.150000000000011,  0.461971864129279,  0.228241453366281 ]
    mass: 63.546000
    reduced_to: 101
  - symbol: Cu # 102
    coordinates: [  0.350000000000011,  0.461971864129279,  0.228241453366281 ]
    mass: 63.546000
    reduced_to: 101
  - symbol: Cu # 103
    coordinates: [  0.550000000000011,  0.461971864129279,  0.228241453366281 ]
    mass: 63.546000
    reduced_to: 101
  - symbol: Cu # 104
    coordinates: [  0.750000000000012,  0.461971864129279,  0.228241453366281 ]
    mass: 63.546000
    reduced_to: 101
  - symbol: Cu # 105
    coordinates: [  0.950000000000011,  0.461971864129279,  0.228241453366281 ]
    mass: 63.546000
    reduced_to: 101
  - symbol: Cu # 106
    coordinates: [  0.150000000000011,  0.961971864129279,  0.228241453366281 ]
    mass: 63.546000
    reduced_to: 101
  - symbol: Cu # 107
    coordinates: [  0.350000000000011,  0.961971864129279,  0.228241453366281 ]
    mass: 63.546000
    reduced_to: 101
  - symbol: Cu # 108
    coordinates: [  0.550000000000011,  0.961971864129279,  0.228241453366281 ]
    mass: 63.546000
    reduced_to: 101
  - symbol: Cu # 109
    coordinates: [  0.750000000000012,  0.961971864129279,  0.228241453366281 ]
    mass: 63.546000
    reduced_to: 101
  - symbol: Cu # 110
    coordinates: [  0.950000000000011,  0.961971864129279,  0.228241453366281 ]
    mass: 63.546000
    reduced_to: 101
  - symbol: Cu # 111
    coordinates: [  0.150000000000011,  0.461971864129279,  0.728241453366281 ]
    mass: 63.546000
    reduced_to: 101
  - symbol: Cu # 112
    coordinates: [  0.350000000000011,  0.461971864129279,  0.728241453366281 ]
    mass: 63.546000
    reduced_to: 101
  - symbol: Cu # 113
    coordinates: [  0.550000000000011,  0.461971864129279,  0.728241453366281 ]
    mass: 63.546000
    reduced_to: 101
  - symbol: Cu # 114
    coordinates: [  0.750000000000012,  0.461971864129279,  0.728241453366281 ]
    mass: 63.546000
    reduced_to: 101
  - symbol: Cu # 115
    coordinates: [  0.950000000000011,  0.461971864129279,  0.728241453366281 ]
    mass: 63.546000
    reduced_to: 101
  - symbol: Cu # 116
    coordinates: [  0.150000000000011,  0.961971864129279,  0.728241453366281 ]
    mass: 63.546000
    reduced_to: 101
  - symbol: Cu # 117
    coordinates: [  0.350000000000011,  0.961971864129279,  0.728241453366281 ]
    mass: 63.546000
    reduced_to: 101
  - symbol: Cu # 118
    coordinates: [  0.550000000000011,  0.961971864129279,  0.728241453366281 ]
    mass: 63.546000
    reduced_to: 101
  - symbol: Cu # 119
    coordinates: [  0.750000000000012,  0.961971864129279,  0.728241453366281 ]
    mass: 63.546000
    reduced_to: 101
  - symbol: Cu # 120
    coordinates: [  0.950000000000011,  0.961971864129279,  0.728241453366281 ]
    mass: 63.546000
    reduced_to: 101
  - symbol: Cu # 121
    coordinates: [  0.150000000000013,  0.211971864129279,  0.021758546633719 ]
    mass: 63.546000
    reduced_to: 121
  - symbol: Cu # 122
    coordinates: [  0.350000000000013,  0.211971864129279,  0.021758546633719 ]
    mass: 63.546000
    reduced_to: 121
  - symbol: Cu # 123
    coordinates: [  0.550000000000013,  0.211971864129279,  0.021758546633719 ]
    mass: 63.546000
    reduced_to: 121
  - symbol: Cu # 124
    coordinates: [  0.750000000000013,  0.211971864129279,  0.021758546633719 ]
    mass: 63.546000
    reduced_to: 121
  - symbol: Cu # 125
    coordinates: [  0.950000000000013,  0.211971864129279,  0.021758546633719 ]
    mass: 63.546000
    reduced_to: 121
  - symbol: Cu # 126
    coordinates: [  0.150000000000013,  0.711971864129279,  0.021758546633719 ]
    mass: 63.546000
    reduced_to: 121
  - symbol: Cu # 127
    coordinates: [  0.350000000000013,  0.711971864129279,  0.021758546633719 ]
    mass: 63.546000
    reduced_to: 121
  - symbol: Cu # 128
    coordinates: [  0.550000000000013,  0.711971864129279,  0.021758546633719 ]
    mass: 63.546000
    reduced_to: 121
  - symbol: Cu # 129
    coordinates: [  0.750000000000013,  0.711971864129279,  0.021758546633719 ]
    mass: 63.546000
    reduced_to: 121
  - symbol: Cu # 130
    coordinates: [  0.950000000000013,  0.711971864129279,  0.021758546633719 ]
    mass: 63.546000
    reduced_to: 121
  - symbol: Cu # 131
    coordinates: [  0.150000000000013,  0.211971864129279,  0.521758546633719 ]
    mass: 63.546000
    reduced_to: 121
  - symbol: Cu # 132
    coordinates: [  0.350000000000013,  0.211971864129279,  0.521758546633719 ]
    mass: 63.546000
    reduced_to: 121
  - symbol: Cu # 133
    coordinates: [  0.550000000000013,  0.211971864129279,  0.521758546633719 ]
    mass: 63.546000
    reduced_to: 121
  - symbol: Cu # 134
    coordinates: [  0.750000000000013,  0.211971864129279,  0.521758546633719 ]
    mass: 63.546000
    reduced_to: 121
  - symbol: Cu # 135
    coordinates: [  0.950000000000013,  0.211971864129279,  0.521758546633719 ]
    mass: 63.546000
    reduced_to: 121
  - symbol: Cu # 136
    coordinates: [  0.150000000000013,  0.711971864129279,  0.521758546633719 ]
    mass: 63.546000
    reduced_to: 121
  - symbol: Cu # 137
    coordinates: [  0.350000000000013,  0.711971864129279,  0.521758546633719 ]
    mass: 63.546000
    reduced_to: 121
  - symbol: Cu # 138
    coordinates: [  0.550000000000013,  0.711971864129279,  0.521758546633719 ]
    mass: 63.546000
    reduced_to: 121
  - symbol: Cu # 139
    coordinates: [  0.750000000000013,  0.711971864129279,  0.521758546633719 ]
    mass: 63.546000
    reduced_to: 121
  - symbol: Cu # 140
    coordinates: [  0.950000000000013,  0.711971864129279,  0.521758546633719 ]
    mass: 63.546000
    reduced_to: 121
  - symbol: Cu # 141
    coordinates: [  0.049999999999988,  0.288028135870719,  0.478241453366282 ]
    mass: 63.546000
    reduced_to: 141
  - symbol: Cu # 142
    coordinates: [  0.249999999999988,  0.288028135870719,  0.478241453366282 ]
    mass: 63.546000
    reduced_to: 141
  - symbol: Cu # 143
    coordinates: [  0.449999999999988,  0.288028135870719,  0.478241453366282 ]
    mass: 63.546000
    reduced_to: 141
  - symbol: Cu # 144
    coordinates: [  0.649999999999988,  0.288028135870719,  0.478241453366282 ]
    mass: 63.546000
    reduced_to: 141
  - symbol: Cu # 145
    coordinates: [  0.849999999999988,  0.288028135870719,  0.478241453366282 ]
    mass: 63.546000
    reduced_to: 141
  - symbol: Cu # 146
    coordinates: [  0.049999999999988,  0.788028135870719,  0.478241453366282 ]
    mass: 63.546000
    reduced_to: 141
  - symbol: Cu # 147
    coordinates: [  0.249999999999988,  0.788028135870719,  0.478241453366282 ]
    mass: 63.546000
    reduced_to: 141
  - symbol: Cu # 148
    coordinates: [  0.449999999999988,  0.788028135870719,  0.478241453366282 ]
    mass: 63.546000
    reduced_to: 141
  - symbol: Cu # 149
    coordinates: [  0.649999999999988,  0.788028135870719,  0.478241453366282 ]
    mass: 63.546000
    reduced_to: 141
  - symbol: Cu # 150
    coordinates: [  0.849999999999988,  0.788028135870719,  0.478241453366282 ]
    mass: 63.546000
    reduced_to: 141
  - symbol: Cu # 151
    coordinates: [  0.049999999999988,  0.288028135870719,  0.978241453366282 ]
    mass: 63.546000
    reduced_to: 141
  - symbol: Cu # 152
    coordinates: [  0.249999999999988,  0.288028135870719,  0.978241453366282 ]
    mass: 63.546000
    reduced_to: 141
  - symbol: Cu # 153
    coordinates: [  0.449999999999988,  0.288028135870719,  0.978241453366282 ]
    mass: 63.546000
    reduced_to: 141
  - symbol: Cu # 154
    coordinates: [  0.649999999999988,  0.288028135870719,  0.978241453366282 ]
    mass: 63.546000
    reduced_to: 141
  - symbol: Cu # 155
    coordinates: [  0.849999999999988,  0.288028135870719,  0.978241453366282 ]
    mass: 63.546000
    reduced_to: 141
  - symbol: Cu # 156
    coordinates: [  0.049999999999988,  0.788028135870719,  0.978241453366282 ]
    mass: 63.546000
    reduced_to: 141
  - symbol: Cu # 157
    coordinates: [  0.249999999999988,  0.788028135870719,  0.978241453366282 ]
    mass: 63.546000
    reduced_to: 141
  - symbol: Cu # 158
    coordinates: [  0.449999999999988,  0.788028135870719,  0.978241453366282 ]
    mass: 63.546000
    reduced_to: 141
  - symbol: Cu # 159
    coordinates: [  0.649999999999988,  0.788028135870719,  0.978241453366282 ]
    mass: 63.546000
    reduced_to: 141
  - symbol: Cu # 160
    coordinates: [  0.849999999999988,  0.788028135870719,  0.978241453366282 ]
    mass: 63.546000
    reduced_to: 141
  - symbol: Cu # 161
    coordinates: [  0.150000000000002,  0.472836663844069,  0.441587666825818 ]
    mass: 63.546000
    reduced_to: 161
  - symbol: Cu # 162
    coordinates: [  0.350000000000002,  0.472836663844069,  0.441587666825818 ]
    mass: 63.546000
    reduced_to: 161
  - symbol: Cu # 163
    coordinates: [  0.550000000000002,  0.472836663844069,  0.441587666825818 ]
    mass: 63.546000
    reduced_to: 161
  - symbol: Cu # 164
    coordinates: [  0.750000000000002,  0.472836663844069,  0.441587666825818 ]
    mass: 63.546000
    reduced_to: 161
  - symbol: Cu # 165
    coordinates: [  0.950000000000002,  0.472836663844069,  0.441587666825818 ]
    mass: 63.546000
    reduced_to: 161
  - symbol: Cu # 166
    coordinates: [  0.150000000000002,  0.972836663844069,  0.441587666825818 ]
    mass: 63.546000