phonopy:
  version: "2.27.0"
  frequency_unit_conversion_factor: 15.633302
  symmetry_tolerance: 1.00000e-04

space_group:
  type: "Pma2"
  number: 28
  Hall_symbol: "P 2 -2a"

primitive_matrix:
- [ -0.000000000000000,  0.000000000000000,  1.000000000000000 ]
- [  0.000000000000000,  1.000000000000000,  0.000000000000000 ]
- [ -1.000000000000000, -0.000000000000000, -0.000000000000000 ]

supercell_matrix:
- [   6,   0,   0 ]
- [   0,   3,   0 ]
- [   0,   0,   2 ]

primitive_cell:
  lattice:
  - [    -0.000000000000001,    -0.000000000000061,   -17.075370523598544 ] # a
  - [     0.000000000000000,     9.023685620747427,     0.000000000000040 ] # b
  - [     4.421266112398470,     0.000000000000000,     0.000000000000000 ] # c
  points:
  - symbol: Te # 1
    coordinates: [  0.619218419599168,  0.034927554033761,  0.450483754083712 ]
    mass: 127.600000
  - symbol: Te # 2
    coordinates: [  0.380781580400838,  0.965072445966234,  0.450483754083712 ]
    mass: 127.600000
  - symbol: Te # 3
    coordinates: [  0.119218419599168,  0.965072445966234,  0.450483754083712 ]
    mass: 127.600000
  - symbol: Te # 4
    coordinates: [  0.880781580400838,  0.034927554033761,  0.450483754083712 ]
    mass: 127.600000
  - symbol: Te # 5
    coordinates: [  0.629158887046254,  0.639592640791413,  0.516473026927774 ]
    mass: 127.600000
  - symbol: Te # 6
    coordinates: [  0.370841112953752,  0.360407359208582,  0.516473026927774 ]
    mass: 127.600000
  - symbol: Te # 7
    coordinates: [  0.129158887046254,  0.360407359208582,  0.516473026927774 ]
    mass: 127.600000
  - symbol: Te # 8
    coordinates: [  0.870841112953752,  0.639592640791413,  0.516473026927774 ]
    mass: 127.600000
  - symbol: Te # 9
    coordinates: [  0.750000000000003,  0.980764344719947,  0.022991253935452 ]
    mass: 127.600000
  - symbol: Te # 10
    coordinates: [  0.250000000000003,  0.019235655280048,  0.022991253935451 ]
    mass: 127.600000
  - symbol: Te # 11
    coordinates: [  0.750000000000003,  0.380116422087229,  0.106808843630598 ]
    mass: 127.600000
  - symbol: Te # 12
    coordinates: [  0.250000000000003,  0.619883577912766,  0.106808843630597 ]
    mass: 127.600000
  - symbol: Te # 13
    coordinates: [  0.005018583266337,  0.698849564701502,  0.906746218960610 ]
    mass: 127.600000
  - symbol: Te # 14
    coordinates: [  0.994981416733669,  0.301150435298494,  0.906746218960610 ]
    mass: 127.600000
  - symbol: Te # 15
    coordinates: [  0.505018583266337,  0.301150435298494,  0.906746218960611 ]
    mass: 127.600000
  - symbol: Te # 16
    coordinates: [  0.494981416733669,  0.698849564701502,  0.906746218960610 ]
    mass: 127.600000
  - symbol: Au # 17
    coordinates: [  0.625434098717718,  0.336319021092130,  0.493353546276055 ]
    mass: 196.966569
  - symbol: Au # 18
    coordinates: [  0.374565901282288,  0.663680978907866,  0.493353546276055 ]
    mass: 196.966569
  - symbol: Au # 19
    coordinates: [  0.125434098717718,  0.663680978907866,  0.493353546276055 ]
    mass: 196.966569
  - symbol: Au # 20
    coordinates: [  0.874565901282287,  0.336319021092130,  0.493353546276055 ]
    mass: 196.966569
  - symbol: Au # 21
    coordinates: [  0.250000000000003,  0.321448517942645,  0.004822150389960 ]
    mass: 196.966569
  - symbol: Au # 22
    coordinates: [  0.750000000000003,  0.678551482057350,  0.004822150389960 ]
    mass: 196.966569
  - symbol: Au # 23
    coordinates: [  0.500000000000003,  0.999999999999998,  0.961258659547725 ]
    mass: 196.966569
  - symbol: Au # 24
    coordinates: [  0.000000000000002,  0.999999999999998,  0.961258659547725 ]
    mass: 196.966569
  reciprocal_lattice: # without 2pi
  - [     0.000000000000000,     0.000000000000000,    -0.058563882910651 ] # a*
  - [    -0.000000000000000,     0.110819463579358,    -0.000000000000000 ] # b*
  - [     0.226179554584086,    -0.000000000000000,    -0.000000000000000 ] # c*

unit_cell:
  lattice:
  - [     4.421266112398470,     0.000000000000000,     0.000000000000000 ] # a
  - [     0.000000000000000,     9.023685620747429,     0.000000000000040 ] # b
  - [     0.000000000000001,     0.000000000000061,    17.075370523598547 ] # c
  points:
  - symbol: Te # 1
    coordinates: [  0.450483754083712,  0.034927554033761,  0.380781580400832 ]
    mass: 127.600000
    reduced_to: 1
  - symbol: Te # 2
    coordinates: [  0.450483754083712,  0.965072445966234,  0.619218419599162 ]
    mass: 127.600000
    reduced_to: 2
  - symbol: Te # 3
    coordinates: [  0.450483754083712,  0.965072445966234,  0.880781580400832 ]
    mass: 127.600000
    reduced_to: 3
  - symbol: Te # 4
    coordinates: [  0.450483754083712,  0.034927554033761,  0.119218419599162 ]
    mass: 127.600000
    reduced_to: 4
  - symbol: Te # 5
    coordinates: [  0.516473026927774,  0.639592640791413,  0.370841112953746 ]
    mass: 127.600000
    reduced_to: 5
  - symbol: Te # 6
    coordinates: [  0.516473026927774,  0.360407359208582,  0.629158887046248 ]
    mass: 127.600000
    reduced_to: 6
  - symbol: Te # 7
    coordinates: [  0.516473026927774,  0.360407359208582,  0.870841112953746 ]
    mass: 127.600000
    reduced_to: 7
  - symbol: Te # 8
    coordinates: [  0.516473026927775,  0.639592640791413,  0.129158887046248 ]
    mass: 127.600000
    reduced_to: 8
  - symbol: Te # 9
    coordinates: [  0.022991253935452,  0.980764344719947,  0.249999999999997 ]
    mass: 127.600000
    reduced_to: 9
  - symbol: Te # 10
    coordinates: [  0.022991253935451,  0.019235655280048,  0.749999999999997 ]
    mass: 127.600000
    reduced_to: 10
  - symbol: Te # 11
    coordinates: [  0.106808843630598,  0.380116422087229,  0.249999999999997 ]
    mass: 127.600000
    reduced_to: 11
  - symbol: Te # 12
    coordinates: [  0.106808843630597,  0.619883577912766,  0.749999999999997 ]
    mass: 127.600000
    reduced_to: 12
  - symbol: Te # 13
    coordinates: [  0.906746218960610,  0.698849564701502,  0.994981416733663 ]
    mass: 127.600000
    reduced_to: 13
  - symbol: Te # 14
    coordinates: [  0.906746218960610,  0.301150435298494,  0.005018583266331 ]
    mass: 127.600000
    reduced_to: 14
  - symbol: Te # 15
    coordinates: [  0.906746218960611,  0.301150435298494,  0.494981416733663 ]
    mass: 127.600000
    reduced_to: 15
  - symbol: Te # 16
    coordinates: [  0.906746218960610,  0.698849564701501,  0.505018583266331 ]
    mass: 127.600000
    reduced_to: 16
  - symbol: Au # 17
    coordinates: [  0.493353546276055,  0.336319021092130,  0.374565901282282 ]
    mass: 196.966569
    reduced_to: 17
  - symbol: Au # 18
    coordinates: [  0.493353546276055,  0.663680978907866,  0.625434098717712 ]
    mass: 196.966569
    reduced_to: 18
  - symbol: Au # 19
    coordinates: [  0.493353546276055,  0.663680978907865,  0.874565901282281 ]
    mass: 196.966569
    reduced_to: 19
  - symbol: Au # 20
    coordinates: [  0.493353546276055,  0.336319021092130,  0.125434098717713 ]
    mass: 196.966569
    reduced_to: 20
  - symbol: Au # 21
    coordinates: [  0.004822150389960,  0.321448517942645,  0.749999999999997 ]
    mass: 196.966569
    reduced_to: 21
  - symbol: Au # 22
    coordinates: [  0.004822150389960,  0.678551482057350,  0.249999999999997 ]
    mass: 196.966569
    reduced_to: 22
  - symbol: Au # 23
    coordinates: [  0.961258659547725, -0.000000000000003,  0.499999999999997 ]
    mass: 196.966569
    reduced_to: 23
  - symbol: Au # 24
    coordinates: [  0.961258659547725, -0.000000000000003, -0.000000000000003 ]
    mass: 196.966569
    reduced_to: 24

supercell:
  lattice:
  - [    26.527596674390821,     0.000000000000000,     0.000000000000002 ] # a
  - [     0.000000000000000,    27.071056862242287,     0.000000000000120 ] # b
  - [     0.000000000000001,     0.000000000000122,    34.150741047197094 ] # c
  points:
  - symbol: Te # 1
    coordinates: [  0.075080625680619,  0.011642518011254,  0.190390790200416 ]
    mass: 127.600000
    reduced_to: 1
  - symbol: Te # 2
    coordinates: [  0.241747292347285,  0.011642518011254,  0.190390790200416 ]
    mass: 127.600000
    reduced_to: 1
  - symbol: Te # 3
    coordinates: [  0.408413959013952,  0.011642518011254,  0.190390790200416 ]
    mass: 127.600000
    reduced_to: 1
  - symbol: Te # 4
    coordinates: [  0.575080625680619,  0.011642518011254,  0.190390790200416 ]
    mass: 127.600000
    reduced_to: 1
  - symbol: Te # 5
    coordinates: [  0.741747292347285,  0.011642518011254,  0.190390790200416 ]
    mass: 127.600000
    reduced_to: 1
  - symbol: Te # 6
    coordinates: [  0.908413959013952,  0.011642518011254,  0.190390790200416 ]
    mass: 127.600000
    reduced_to: 1
  - symbol: Te # 7
    coordinates: [  0.075080625680619,  0.344975851344587,  0.190390790200416 ]
    mass: 127.600000
    reduced_to: 1
  - symbol: Te # 8
    coordinates: [  0.241747292347285,  0.344975851344587,  0.190390790200416 ]
    mass: 127.600000
    reduced_to: 1
  - symbol: Te # 9
    coordinates: [  0.408413959013952,  0.344975851344587,  0.190390790200416 ]
    mass: 127.600000
    reduced_to: 1
  - symbol: Te # 10
    coordinates: [  0.575080625680619,  0.344975851344587,  0.190390790200416 ]
    mass: 127.600000
    reduced_to: 1
  - symbol: Te # 11
    coordinates: [  0.741747292347285,  0.344975851344587,  0.190390790200416 ]
    mass: 127.600000
    reduced_to: 1
  - symbol: Te # 12
    coordinates: [  0.908413959013952,  0.344975851344587,  0.190390790200416 ]
    mass: 127.600000
    reduced_to: 1
  - symbol: Te # 13
    coordinates: [  0.075080625680619,  0.678309184677920,  0.190390790200416 ]
    mass: 127.600000
    reduced_to: 1
  - symbol: Te # 14
    coordinates: [  0.241747292347285,  0.678309184677920,  0.190390790200416 ]
    mass: 127.600000
    reduced_to: 1
  - symbol: Te # 15
    coordinates: [  0.408413959013952,  0.678309184677920,  0.190390790200416 ]
    mass: 127.600000
    reduced_to: 1
  - symbol: Te # 16
    coordinates: [  0.575080625680619,  0.678309184677920,  0.190390790200416 ]
    mass: 127.600000
    reduced_to: 1
  - symbol: Te # 17
    coordinates: [  0.741747292347285,  0.678309184677920,  0.190390790200416 ]
    mass: 127.600000
    reduced_to: 1
  - symbol: Te # 18
    coordinates: [  0.908413959013952,  0.678309184677920,  0.190390790200416 ]
    mass: 127.600000
    reduced_to: 1
  - symbol: Te # 19
    coordinates: [  0.075080625680619,  0.011642518011254,  0.690390790200416 ]
    mass: 127.600000
    reduced_to: 1
  - symbol: Te # 20
    coordinates: [  0.241747292347285,  0.011642518011254,  0.690390790200416 ]
    mass: 127.600000
    reduced_to: 1
  - symbol: Te # 21
    coordinates: [  0.408413959013952,  0.011642518011254,  0.690390790200416 ]
    mass: 127.600000
    reduced_to: 1
  - symbol: Te # 22
    coordinates: [  0.575080625680619,  0.011642518011254,  0.690390790200416 ]
    mass: 127.600000
    reduced_to: 1
  - symbol: Te # 23
    coordinates: [  0.741747292347285,  0.011642518011254,  0.690390790200416 ]
    mass: 127.600000
    reduced_to: 1
  - symbol: Te # 24
    coordinates: [  0.908413959013952,  0.011642518011254,  0.690390790200416 ]
    mass: 127.600000
    reduced_to: 1
  - symbol: Te # 25
    coordinates: [  0.075080625680619,  0.344975851344587,  0.690390790200416 ]
    mass: 127.600000
    reduced_to: 1
  - symbol: Te # 26
    coordinates: [  0.241747292347285,  0.344975851344587,  0.690390790200416 ]
    mass: 127.600000
    reduced_to: 1
  - symbol: Te # 27
    coordinates: [  0.408413959013952,  0.344975851344587,  0.690390790200416 ]
    mass: 127.600000
    reduced_to: 1
  - symbol: Te # 28
    coordinates: [  0.575080625680619,  0.344975851344587,  0.690390790200416 ]
    mass: 127.600000
    reduced_to: 1
  - symbol: Te # 29
    coordinates: [  0.741747292347285,  0.344975851344587,  0.690390790200416 ]
    mass: 127.600000
    reduced_to: 1
  - symbol: Te # 30
    coordinates: [  0.908413959013952,  0.344975851344587,  0.690390790200416 ]
    mass: 127.600000
    reduced_to: 1
  - symbol: Te # 31
    coordinates: [  0.075080625680619,  0.678309184677920,  0.690390790200416 ]
    mass: 127.600000
    reduced_to: 1
  - symbol: Te # 32
    coordinates: [  0.241747292347285,  0.678309184677920,  0.690390790200416 ]
    mass: 127.600000
    reduced_to: 1
  - symbol: Te # 33
    coordinates: [  0.408413959013952,  0.678309184677920,  0.690390790200416 ]
    mass: 127.600000
    reduced_to: 1
  - symbol: Te # 34
    coordinates: [  0.575080625680619,  0.678309184677920,  0.690390790200416 ]
    mass: 127.600000
    reduced_to: 1
  - symbol: Te # 35
    coordinates: [  0.741747292347285,  0.678309184677920,  0.690390790200416 ]
    mass: 127.600000
    reduced_to: 1
  - symbol: Te # 36
    coordinates: [  0.908413959013952,  0.678309184677920,  0.690390790200416 ]
    mass: 127.600000
    reduced_to: 1
  - symbol: Te # 37
    coordinates: [  0.075080625680619,  0.321690815322078,  0.309609209799581 ]
    mass: 127.600000
    reduced_to: 37
  - symbol: Te # 38
    coordinates: [  0.241747292347285,  0.321690815322078,  0.309609209799581 ]
    mass: 127.600000
    reduced_to: 37
  - symbol: Te # 39
    coordinates: [  0.408413959013952,  0.321690815322078,  0.309609209799581 ]
    mass: 127.600000
    reduced_to: 37
  - symbol: Te # 40
    coordinates: [  0.575080625680619,  0.321690815322078,  0.309609209799581 ]
    mass: 127.600000
    reduced_to: 37
  - symbol: Te # 41
    coordinates: [  0.741747292347285,  0.321690815322078,  0.309609209799581 ]
    mass: 127.600000
    reduced_to: 37
  - symbol: Te # 42
    coordinates: [  0.908413959013952,  0.321690815322078,  0.309609209799581 ]
    mass: 127.600000
    reduced_to: 37
  - symbol: Te # 43
    coordinates: [  0.075080625680619,  0.655024148655411,  0.309609209799581 ]
    mass: 127.600000
    reduced_to: 37
  - symbol: Te # 44
    coordinates: [  0.241747292347285,  0.655024148655411,  0.309609209799581 ]
    mass: 127.600000
    reduced_to: 37
  - symbol: Te # 45
    coordinates: [  0.408413959013952,  0.655024148655411,  0.309609209799581 ]
    mass: 127.600000
    reduced_to: 37
  - symbol: Te # 46
    coordinates: [  0.575080625680619,  0.655024148655411,  0.309609209799581 ]
    mass: 127.600000
    reduced_to: 37
  - symbol: Te # 47
    coordinates: [  0.741747292347285,  0.655024148655411,  0.309609209799581 ]
    mass: 127.600000
    reduced_to: 37
  - symbol: Te # 48
    coordinates: [  0.908413959013952,  0.655024148655411,  0.309609209799581 ]
    mass: 127.600000
    reduced_to: 37
  - symbol: Te # 49
    coordinates: [  0.075080625680619,  0.988357481988744,  0.309609209799581 ]
    mass: 127.600000
    reduced_to: 37
  - symbol: Te # 50
    coordinates: [  0.241747292347285,  0.988357481988744,  0.309609209799581 ]
    mass: 127.600000
    reduced_to: 37
  - symbol: Te # 51
    coordinates: [  0.408413959013952,  0.988357481988744,  0.309609209799581 ]
    mass: 127.600000
    reduced_to: 37
  - symbol: Te # 52
    coordinates: [  0.575080625680619,  0.988357481988744,  0.309609209799581 ]
    mass: 127.600000
    reduced_to: 37
  - symbol: Te # 53
    coordinates: [  0.741747292347285,  0.988357481988744,  0.309609209799581 ]
    mass: 127.600000
    reduced_to: 37
  - symbol: Te # 54
    coordinates: [  0.908413959013952,  0.988357481988744,  0.309609209799581 ]
    mass: 127.600000
    reduced_to: 37
  - symbol: Te # 55
    coordinates: [  0.075080625680619,  0.321690815322078,  0.809609209799581 ]
    mass: 127.600000
    reduced_to: 37
  - symbol: Te # 56
    coordinates: [  0.241747292347285,  0.321690815322078,  0.809609209799581 ]
    mass: 127.600000
    reduced_to: 37
  - symbol: Te # 57
    coordinates: [  0.408413959013952,  0.321690815322078,  0.809609209799581 ]
    mass: 127.600000
    reduced_to: 37
  - symbol: Te # 58
    coordinates: [  0.575080625680619,  0.321690815322078,  0.809609209799581 ]
    mass: 127.600000
    reduced_to: 37
  - symbol: Te # 59
    coordinates: [  0.741747292347285,  0.321690815322078,  0.809609209799581 ]
    mass: 127.600000
    reduced_to: 37
  - symbol: Te # 60
    coordinates: [  0.908413959013952,  0.321690815322078,  0.809609209799581 ]
    mass: 127.600000
    reduced_to: 37
  - symbol: Te # 61
    coordinates: [  0.075080625680619,  0.655024148655411,  0.809609209799581 ]
    mass: 127.600000
    reduced_to: 37
  - symbol: Te # 62
    coordinates: [  0.241747292347285,  0.655024148655411,  0.809609209799581 ]
    mass: 127.600000
    reduced_to: 37
  - symbol: Te # 63
    coordinates: [  0.408413959013952,  0.655024148655411,  0.809609209799581 ]
    mass: 127.600000
    reduced_to: 37
  - symbol: Te # 64
    coordinates: [  0.575080625680619,  0.655024148655411,  0.809609209799581 ]
    mass: 127.600000
    reduced_to: 37
  - symbol: Te # 65
    coordinates: [  0.741747292347285,  0.655024148655411,  0.809609209799581 ]
    mass: 127.600000
    reduced_to: 37
  - symbol: Te # 66
    coordinates: [  0.908413959013952,  0.655024148655411,  0.809609209799581 ]
    mass: 127.600000
    reduced_to: 37
  - symbol: Te # 67
    coordinates: [  0.075080625680619,  0.988357481988744,  0.809609209799581 ]
    mass: 127.600000
    reduced_to: 37
  - symbol: Te # 68
    coordinates: [  0.241747292347285,  0.988357481988744,  0.809609209799581 ]
    mass: 127.600000
    reduced_to: 37
  - symbol: Te # 69
    coordinates: [  0.408413959013952,  0.988357481988744,  0.809609209799581 ]
    mass: 127.600000
    reduced_to: 37
  - symbol: Te # 70
    coordinates: [  0.575080625680619,  0.988357481988744,  0.809609209799581 ]
    mass: 127.600000
    reduced_to: 37
  - symbol: Te # 71
    coordinates: [  0.741747292347285,  0.988357481988744,  0.809609209799581 ]
    mass: 127.600000
    reduced_to: 37
  - symbol: Te # 72
    coordinates: [  0.908413959013952,  0.988357481988744,  0.809609209799581 ]
    mass: 127.600000
    reduced_to: 37
  - symbol: Te # 73
    coordinates: [  0.075080625680619,  0.321690815322078,  0.440390790200416 ]
    mass: 127.600000
    reduced_to: 73
  - symbol: Te # 74
    coordinates: [  0.241747292347285,  0.321690815322078,  0.440390790200416 ]
    mass: 127.600000
    reduced_to: 73
  - symbol: Te # 75
    coordinates: [  0.408413959013952,  0.321690815322078,  0.440390790200416 ]
    mass: 127.600000
    reduced_to: 73
  - symbol: Te # 76
    coordinates: [  0.575080625680619,  0.321690815322078,  0.440390790200416 ]
    mass: 127.600000
    reduced_to: 73
  - symbol: Te # 77
    coordinates: [  0.741747292347285,  0.321690815322078,  0.440390790200416 ]
    mass: 127.600000
    reduced_to: 73
  - symbol: Te # 78
    coordinates: [  0.908413959013952,  0.321690815322078,  0.440390790200416 ]
    mass: 127.600000
    reduced_to: 73
  - symbol: Te # 79
    coordinates: [  0.075080625680619,  0.655024148655411,  0.440390790200416 ]
    mass: 127.600000
    reduced_to: 73
  - symbol: Te # 80
    coordinates: [  0.241747292347285,  0.655024148655411,  0.440390790200416 ]
    mass: 127.600000
    reduced_to: 73
  - symbol: Te # 81
    coordinates: [  0.408413959013952,  0.655024148655411,  0.440390790200416 ]
    mass: 127.600000
    reduced_to: 73
  - symbol: Te # 82
    coordinates: [  0.575080625680619,  0.655024148655411,  0.440390790200416 ]
    mass: 127.600000
    reduced_to: 73
  - symbol: Te # 83
    coordinates: [  0.741747292347285,  0.655024148655411,  0.440390790200416 ]
    mass: 127.600000
    reduced_to: 73
  - symbol: Te # 84
    coordinates: [  0.908413959013952,  0.655024148655411,  0.440390790200416 ]
    mass: 127.600000
    reduced_to: 73
  - symbol: Te # 85
    coordinates: [  0.075080625680619,  0.988357481988745,  0.440390790200416 ]
    mass: 127.600000
    reduced_to: 73
  - symbol: Te # 86
    coordinates: [  0.241747292347285,  0.988357481988745,  0.440390790200416 ]
    mass: 127.600000
    reduced_to: 73
  - symbol: Te # 87
    coordinates: [  0.408413959013952,  0.988357481988745,  0.440390790200416 ]
    mass: 127.600000
    reduced_to: 73
  - symbol: Te # 88
    coordinates: [  0.575080625680619,  0.988357481988745,  0.440390790200416 ]
    mass: 127.600000
    reduced_to: 73
  - symbol: Te # 89
    coordinates: [  0.741747292347285,  0.988357481988745,  0.440390790200416 ]
    mass: 127.600000
    reduced_to: 73
  - symbol: Te # 90
    coordinates: [  0.908413959013952,  0.988357481988745,  0.440390790200416 ]
    mass: 127.600000
    reduced_to: 73
  - symbol: Te # 91
    coordinates: [  0.075080625680619,  0.321690815322078,  0.940390790200416 ]
    mass: 127.600000
    reduced_to: 73
  - symbol: Te # 92
    coordinates: [  0.241747292347285,  0.321690815322078,  0.940390790200416 ]
    mass: 127.600000
    reduced_to: 73
  - symbol: Te # 93
    coordinates: [  0.408413959013952,  0.321690815322078,  0.940390790200416 ]
    mass: 127.600000
    reduced_to: 73
  - symbol: Te # 94
    coordinates: [  0.575080625680619,  0.321690815322078,  0.940390790200416 ]
    mass: 127.600000
    reduced_to: 73
  - symbol: Te # 95
    coordinates: [  0.741747292347285,  0.321690815322078,  0.940390790200416 ]
    mass: 127.600000
    reduced_to: 73
  - symbol: Te # 96
    coordinates: [  0.908413959013952,  0.321690815322078,  0.940390790200416 ]
    mass: 127.600000
    reduced_to: 73
  - symbol: Te # 97
    coordinates: [  0.075080625680619,  0.655024148655411,  0.940390790200416 ]
    mass: 127.600000
    reduced_to: 73
  - symbol: Te # 98
    coordinates: [  0.241747292347285,  0.655024148655411,  0.940390790200416 ]
    mass: 127.600000
    reduced_to: 73
  - symbol: Te # 99
    coordinates: [  0.408413959013952,  0.655024148655411,  0.940390790200416 ]
    mass: 127.600000
    reduced_to: 73
  - symbol: Te # 100
    coordinates: [  0.575080625680619,  0.655024148655411,  0.940390790200416 ]
    mass: 127.600000
    reduced_to: 73
  - symbol: Te # 101
    coordinates: [  0.741747292347285,  0.655024148655411,  0.940390790200416 ]
    mass: 127.600000
    reduced_to: 73
  - symbol: Te # 102
    coordinates: [  0.908413959013952,  0.655024148655411,  0.940390790200416 ]
    mass: 127.600000
    reduced_to: 73
  - symbol: Te # 103
    coordinates: [  0.075080625680619,  0.988357481988745,  0.940390790200416 ]
    mass: 127.600000
    reduced_to: 73
  - symbol: Te # 104
    coordinates: [  0.241747292347285,  0.988357481988745,  0.940390790200416 ]
    mass: 127.600000
    reduced_to: 73
  - symbol: Te # 105
    coordinates: [  0.408413959013952,  0.988357481988745,  0.940390790200416 ]
    mass: 127.600000
    reduced_to: 73
  - symbol: Te # 106
    coordinates: [  0.575080625680619,  0.988357481988745,  0.940390790200416 ]
    mass: 127.600000
    reduced_to: 73
  - symbol: Te # 107
    coordinates: [  0.741747292347285,  0.988357481988745,  0.940390790200416 ]
    mass: 127.600000
    reduced_to: 73
  - symbol: Te # 108
    coordinates: [  0.908413959013952,  0.988357481988745,  0.940390790200416 ]
    mass: 127.600000
    reduced_to: 73
  - symbol: Te # 109
    coordinates: [  0.075080625680619,  0.011642518011254,  0.059609209799581 ]
    mass: 127.600000
    reduced_to: 109
  - symbol: Te # 110
    coordinates: [  0.241747292347285,  0.011642518011254,  0.059609209799581 ]
    mass: 127.600000
    reduced_to: 109
  - symbol: Te # 111
    coordinates: [  0.408413959013952,  0.011642518011254,  0.059609209799581 ]
    mass: 127.600000
    reduced_to: 109
  - symbol: Te # 112
    coordinates: [  0.575080625680619,  0.011642518011254,  0.059609209799581 ]
    mass: 127.600000
    reduced_to: 109
  - symbol: Te # 113
    coordinates: [  0.741747292347285,  0.011642518011254,  0.059609209799581 ]
    mass: 127.600000
    reduced_to: 109
  - symbol: Te # 114
    coordinates: [  0.908413959013952,  0.011642518011254,  0.059609209799581 ]
    mass: 127.600000
    reduced_to: 109
  - symbol: Te # 115
    coordinates: [  0.075080625680619,  0.344975851344587,  0.059609209799581 ]
    mass: 127.600000
    reduced_to: 109
  - symbol: Te # 116
    coordinates: [  0.241747292347285,  0.344975851344587,  0.059609209799581 ]
    mass: 127.600000
    reduced_to: 109
  - symbol: Te # 117
    coordinates: [  0.408413959013952,  0.344975851344587,  0.059609209799581 ]
    mass: 127.600000
    reduced_to: 109
  - symbol: Te # 118
    coordinates: [  0.575080625680619,  0.344975851344587,  0.059609209799581 ]
    mass: 127.600000
    reduced_to: 109
  - symbol: Te # 119
    coordinates: [  0.741747292347285,  0.344975851344587,  0.059609209799581 ]
    mass: 127.600000
    reduced_to: 109
  - symbol: Te # 120
    coordinates: [  0.908413959013952,  0.344975851344587,  0.059609209799581 ]
    mass: 127.600000
    reduced_to: 109
  - symbol: Te # 121
    coordinates: [  0.075080625680619,  0.678309184677920,  0.059609209799581 ]
    mass: 127.600000
    reduced_to: 109
  - symbol: Te # 122
    coordinates: [  0.241747292347285,  0.678309184677920,  0.059609209799581 ]
    mass: 127.600000
    reduced_to: 109
  - symbol: Te # 123
    coordinates: [  0.408413959013952,  0.678309184677920,  0.059609209799581 ]
    mass: 127.600000
    reduced_to: 109
  - symbol: Te # 124
    coordinates: [  0.575080625680619,  0.678309184677920,  0.059609209799581 ]
    mass: 127.600000
    reduced_to: 109
  - symbol: Te # 125
    coordinates: [  0.741747292347285,  0.678309184677920,  0.059609209799581 ]
    mass: 127.600000
    reduced_to: 109
  - symbol: Te # 126
    coordinates: [  0.908413959013952,  0.678309184677920,  0.059609209799581 ]
    mass: 127.600000
    reduced_to: 109
  - symbol: Te # 127
    coordinates: [  0.075080625680619,  0.011642518011254,  0.559609209799581 ]
    mass: 127.600000
    reduced_to: 109
  - symbol: Te # 128
    coordinates: [  0.241747292347285,  0.011642518011254,  0.559609209799581 ]
    mass: 127.600000
    reduced_to: 109
  - symbol: Te # 129
    coordinates: [  0.408413959013952,  0.011642518011254,  0.559609209799581 ]
    mass: 127.600000
    reduced_to: 109
  - symbol: Te # 130
    coordinates: [  0.575080625680619,  0.011642518011254,  0.559609209799581 ]
    mass: 127.600000
    reduced_to: 109
  - symbol: Te # 131
    coordinates: [  0.741747292347285,  0.011642518011254,  0.559609209799581 ]
    mass: 127.600000
    reduced_to: 109
  - symbol: Te # 132
    coordinates: [  0.908413959013952,  0.011642518011254,  0.559609209799581 ]
    mass: 127.600000
    reduced_to: 109
  - symbol: Te # 133
    coordinates: [  0.075080625680619,  0.344975851344587,  0.559609209799581 ]
    mass: 127.600000
    reduced_to: 109
  - symbol: Te # 134
    coordinates: [  0.241747292347285,  0.344975851344587,  0.559609209799581 ]
    mass: 127.600000
    reduced_to: 109
  - symbol: Te # 135
    coordinates: [  0.408413959013952,  0.344975851344587,  0.559609209799581 ]
    mass: 127.600000
    reduced_to: 109
  - symbol: Te # 136
    coordinates: [  0.575080625680619,  0.344975851344587,  0.559609209799581 ]
    mass: 127.600000
    reduced_to: 109
  - symbol: Te # 137
    coordinates: [  0.741747292347285,  0.344975851344587,  0.559609209799581 ]
    mass: 127.600000
    reduced_to: 109
  - symbol: Te # 138
    coordinates: [  0.908413959013952,  0.344975851344587,  0.559609209799581 ]
    mass: 127.600000
    reduced_to: 109
  - symbol: Te # 139
    coordinates: [  0.075080625680619,  0.678309184677920,  0.559609209799581 ]
    mass: 127.600000
    reduced_to: 109
  - symbol: Te # 140
    coordinates: [  0.241747292347285,  0.678309184677920,  0.559609209799581 ]
    mass: 127.600000
    reduced_to: 109
  - symbol: Te # 141
    coordinates: [  0.408413959013952,  0.678309184677920,  0.559609209799581 ]
    mass: 127.600000
    reduced_to: 109
  - symbol: Te # 142
    coordinates: [  0.575080625680619,  0.678309184677920,  0.559609209799581 ]
    mass: 127.600000
    reduced_to: 109
  - symbol: Te # 143
    coordinates: [  0.741747292347285,  0.678309184677920,  0.559609209799581 ]
    mass: 127.600000
    reduced_to: 109
  - symbol: Te # 144
    coordinates: [  0.908413959013952,  0.678309184677920,  0.559609209799581 ]
    mass: 127.600000
    reduced_to: 109
  - symbol: Te # 145
    coordinates: [  0.086078837821296,  0.213197546930471,  0.185420556476873 ]
    mass: 127.600000
    reduced_to: 145
  - symbol: Te # 146
    coordinates: [  0.252745504487962,  0.213197546930471,  0.185420556476873 ]
    mass: 127.600000
    reduced_to: 145
  - symbol: Te # 147
    coordinates: [  0.419412171154629,  0.213197546930471,  0.185420556476873 ]
    mass: 127.600000
    reduced_to: 145
  - symbol: Te # 148
    coordinates: [  0.586078837821296,  0.213197546930471,  0.185420556476873 ]
    mass: 127.600000
    reduced_to: 145
  - symbol: Te # 149
    coordinates: [  0.752745504487962,  0.213197546930471,  0.185420556476873 ]
    mass: 127.600000
    reduced_to: 145
  - symbol: Te # 150
    coordinates: [  0.919412171154629,  0.213197546930471,  0.185420556476873 ]
    mass: 127.600000
    reduced_to: 145
  - symbol: Te # 151
    coordinates: [  0.086078837821296,  0.546530880263804,  0.185420556476873 ]
    mass: 127.600000
    reduced_to: 145
  - symbol: Te # 152
    coordinates: [  0.252745504487962,  0.546530880263804,  0.185420556476873 ]
    mass: 127.600000
    reduced_to: 145
  - symbol: Te # 153
    coordinates: [  0.419412171154629,  0.546530880263804,  0.185420556476873 ]
    mass: 127.600000
    reduced_to: 145
  - symbol: Te # 154
    coordinates: [  0.586078837821296,  0.546530880263804,  0.185420556476873 ]
    mass: 127.600000
    reduced_to: 145
  - symbol: Te # 155
    coordinates: [  0.752745504487962,  0.546530880263804,  0.185420556476873 ]
    mass: 127.600000
    reduced_to: 145
  - symbol: Te # 156
    coordinates: [  0.919412171154629,  0.546530880263804,  0.185420556476873 ]
    mass: 127.600000
    reduced_to: 145
  - symbol: Te # 157
    coordinates: [  0.086078837821296,  0.879864213597138,  0.185420556476873 ]
    mass: 127.600000
    reduced_to: 145
  - symbol: Te # 158
    coordinates: [  0.252745504487962,  0.879864213597138,  0.185420556476873 ]
    mass: 127.600000
    reduced_to: 145