phonopy:
  version: "2.21.0"
  frequency_unit_conversion_factor: 15.633302
  symmetry_tolerance: 1.00000e-04

space_group:
  type: "R3m"
  number: 160
  Hall_symbol: "R 3 -2\""

primitive_matrix:
- [  0.666666666666667, -0.333333333333333, -0.333333333333333 ]
- [  0.333333333333333,  0.333333333333333, -0.666666666666667 ]
- [  0.333333333333333,  0.333333333333333,  0.333333333333333 ]

supercell_matrix:
- [   5,   5,   0 ]
- [  -3,   3,   0 ]
- [   0,   0,   1 ]

primitive_cell:
  lattice:
  - [     2.149027177350037,    -1.240741419338867,    14.096783693695167 ] # a
  - [    -0.000000000000000,     2.481482838677732,    14.096783693695167 ] # b
  - [    -2.149027177350037,    -1.240741419338866,    14.096783693695167 ] # c
  points:
  - symbol: Ge # 1
    coordinates: [  0.571178960362834,  0.571178960362828,  0.571178960362833 ]
    mass: 72.640000
  - symbol: Sb # 2
    coordinates: [  0.426014607894232,  0.426014607894226,  0.426014607894231 ]
    mass: 121.760000
  - symbol: Sb # 3
    coordinates: [  0.997705755610321,  0.997705755610328,  0.997705755610321 ]
    mass: 121.760000
  - symbol: Te # 4
    coordinates: [  0.871139875840601,  0.871139875840608,  0.871139875840601 ]
    mass: 127.600000
  - symbol: Te # 5
    coordinates: [  0.133209939784724,  0.133209939784724,  0.133209939784724 ]
    mass: 127.600000
  - symbol: Te # 6
    coordinates: [  0.711017445727791,  0.711017445727798,  0.711017445727791 ]
    mass: 127.600000
  - symbol: Te # 7
    coordinates: [  0.289732414779499,  0.289732414779499,  0.289732414779499 ]
    mass: 127.600000
  reciprocal_lattice: # without 2pi
  - [     0.232663414064660,    -0.134328284740809,     0.023646055765360 ] # a*
  - [    -0.000000000000000,     0.268656569481618,     0.023646055765360 ] # b*
  - [    -0.232663414064660,    -0.134328284740809,     0.023646055765360 ] # c*

unit_cell:
  lattice:
  - [     2.149027177350037,    -3.722224258016599,     0.000000000000000 ] # a
  - [     2.149027177350036,     3.722224258016599,    -0.000000000000000 ] # b
  - [    -0.000000000000000,    -0.000000000000001,    42.290351081085497 ] # c
  points:
  - symbol: Ge # 1
    coordinates: [  0.333333333333336,  0.666666666666664,  0.237845627029499 ]
    mass: 72.640000
    reduced_to: 1
  - symbol: Ge # 2
    coordinates: [  0.000000000000000,  0.000000000000000,  0.571178960362828 ]
    mass: 72.640000
    reduced_to: 1
  - symbol: Ge # 3
    coordinates: [  0.666666666666664,  0.333333333333336,  0.904512293696163 ]
    mass: 72.640000
    reduced_to: 1
  - symbol: Sb # 4
    coordinates: [  0.333333333333336,  0.666666666666664,  0.092681274560897 ]
    mass: 121.760000
    reduced_to: 4
  - symbol: Sb # 5
    coordinates: [  0.666666666666664,  0.333333333333336,  0.331039088943656 ]
    mass: 121.760000
    reduced_to: 5
  - symbol: Sb # 6
    coordinates: [  0.000000000000000,  0.000000000000000,  0.426014607894225 ]
    mass: 121.760000
    reduced_to: 4
  - symbol: Sb # 7
    coordinates: [  0.333333333333336,  0.666666666666664,  0.664372422276985 ]
    mass: 121.760000
    reduced_to: 5
  - symbol: Sb # 8
    coordinates: [  0.666666666666664,  0.333333333333336,  0.759347941227568 ]
    mass: 121.760000
    reduced_to: 4
  - symbol: Sb # 9
    coordinates: [  0.000000000000000,  0.000000000000000,  0.997705755610321 ]
    mass: 121.760000
    reduced_to: 5
  - symbol: Te # 10
    coordinates: [  0.666666666666664,  0.333333333333336,  0.204473209173937 ]
    mass: 127.600000
    reduced_to: 10
  - symbol: Te # 11
    coordinates: [  0.000000000000000,  0.000000000000000,  0.133209939784724 ]
    mass: 127.600000
    reduced_to: 11
  - symbol: Te # 12
    coordinates: [  0.666666666666664,  0.333333333333336,  0.044350779061127 ]
    mass: 127.600000
    reduced_to: 12
  - symbol: Te # 13
    coordinates: [ -0.000000000000000, -0.000000000000000,  0.289732414779499 ]
    mass: 127.600000
    reduced_to: 13
  - symbol: Te # 14
    coordinates: [  0.333333333333336,  0.666666666666664,  0.537806542507272 ]
    mass: 127.600000
    reduced_to: 10
  - symbol: Te # 15
    coordinates: [  0.666666666666664,  0.333333333333336,  0.466543273118052 ]
    mass: 127.600000
    reduced_to: 11
  - symbol: Te # 16
    coordinates: [  0.333333333333336,  0.666666666666664,  0.377684112394462 ]
    mass: 127.600000
    reduced_to: 12
  - symbol: Te # 17
    coordinates: [  0.666666666666664,  0.333333333333336,  0.623065748112835 ]
    mass: 127.600000
    reduced_to: 13
  - symbol: Te # 18
    coordinates: [ -0.000000000000000, -0.000000000000000,  0.871139875840608 ]
    mass: 127.600000
    reduced_to: 10
  - symbol: Te # 19
    coordinates: [  0.333333333333336,  0.666666666666664,  0.799876606451388 ]
    mass: 127.600000
    reduced_to: 11
  - symbol: Te # 20
    coordinates: [ -0.000000000000000, -0.000000000000000,  0.711017445727798 ]
    mass: 127.600000
    reduced_to: 12
  - symbol: Te # 21
    coordinates: [  0.333333333333336,  0.666666666666664,  0.956399081446163 ]
    mass: 127.600000
    reduced_to: 13

supercell:
  lattice:
  - [     4.298054354700076,   -29.777794064132785,     0.000000000000002 ] # a
  - [    17.192217418800290,    -7.444448516033196,     0.000000000000000 ] # b
  - [    -0.000000000000000,    -0.000000000000001,    42.290351081085497 ] # c
  points:
  - symbol: Ge # 1
    coordinates: [  0.922222222222223,  0.144444444444444,  0.237845627029499 ]
    mass: 72.640000
    reduced_to: 1
  - symbol: Ge # 2
    coordinates: [  0.022222222222223,  0.244444444444444,  0.237845627029499 ]
    mass: 72.640000
    reduced_to: 1
  - symbol: Ge # 3
    coordinates: [  0.122222222222223,  0.344444444444444,  0.237845627029499 ]
    mass: 72.640000
    reduced_to: 1
  - symbol: Ge # 4
    coordinates: [  0.222222222222223,  0.444444444444444,  0.237845627029499 ]
    mass: 72.640000
    reduced_to: 1
  - symbol: Ge # 5
    coordinates: [  0.322222222222223,  0.544444444444444,  0.237845627029499 ]
    mass: 72.640000
    reduced_to: 1
  - symbol: Ge # 6
    coordinates: [  0.422222222222223,  0.644444444444444,  0.237845627029499 ]
    mass: 72.640000
    reduced_to: 1
  - symbol: Ge # 7
    coordinates: [  0.522222222222223,  0.744444444444444,  0.237845627029499 ]
    mass: 72.640000
    reduced_to: 1
  - symbol: Ge # 8
    coordinates: [  0.622222222222223,  0.844444444444444,  0.237845627029499 ]
    mass: 72.640000
    reduced_to: 1
  - symbol: Ge # 9
    coordinates: [  0.722222222222223,  0.944444444444444,  0.237845627029499 ]
    mass: 72.640000
    reduced_to: 1
  - symbol: Ge # 10
    coordinates: [  0.822222222222223,  0.044444444444444,  0.237845627029499 ]
    mass: 72.640000
    reduced_to: 1
  - symbol: Ge # 11
    coordinates: [  0.755555555555556,  0.311111111111111,  0.237845627029499 ]
    mass: 72.640000
    reduced_to: 1
  - symbol: Ge # 12
    coordinates: [  0.855555555555556,  0.411111111111111,  0.237845627029499 ]
    mass: 72.640000
    reduced_to: 1
  - symbol: Ge # 13
    coordinates: [  0.955555555555556,  0.511111111111111,  0.237845627029499 ]
    mass: 72.640000
    reduced_to: 1
  - symbol: Ge # 14
    coordinates: [  0.055555555555556,  0.611111111111111,  0.237845627029499 ]
    mass: 72.640000
    reduced_to: 1
  - symbol: Ge # 15
    coordinates: [  0.155555555555556,  0.711111111111111,  0.237845627029499 ]
    mass: 72.640000
    reduced_to: 1
  - symbol: Ge # 16
    coordinates: [  0.255555555555556,  0.811111111111111,  0.237845627029499 ]
    mass: 72.640000
    reduced_to: 1
  - symbol: Ge # 17
    coordinates: [  0.355555555555556,  0.911111111111111,  0.237845627029499 ]
    mass: 72.640000
    reduced_to: 1
  - symbol: Ge # 18
    coordinates: [  0.455555555555556,  0.011111111111111,  0.237845627029499 ]
    mass: 72.640000
    reduced_to: 1
  - symbol: Ge # 19
    coordinates: [  0.555555555555556,  0.111111111111111,  0.237845627029499 ]
    mass: 72.640000
    reduced_to: 1
  - symbol: Ge # 20
    coordinates: [  0.655555555555556,  0.211111111111111,  0.237845627029499 ]
    mass: 72.640000
    reduced_to: 1
  - symbol: Ge # 21
    coordinates: [  0.588888888888889,  0.477777777777778,  0.237845627029499 ]
    mass: 72.640000
    reduced_to: 1
  - symbol: Ge # 22
    coordinates: [  0.688888888888890,  0.577777777777778,  0.237845627029499 ]
    mass: 72.640000
    reduced_to: 1
  - symbol: Ge # 23
    coordinates: [  0.788888888888890,  0.677777777777778,  0.237845627029499 ]
    mass: 72.640000
    reduced_to: 1
  - symbol: Ge # 24
    coordinates: [  0.888888888888890,  0.777777777777778,  0.237845627029499 ]
    mass: 72.640000
    reduced_to: 1
  - symbol: Ge # 25
    coordinates: [  0.988888888888890,  0.877777777777778,  0.237845627029499 ]
    mass: 72.640000
    reduced_to: 1
  - symbol: Ge # 26
    coordinates: [  0.088888888888890,  0.977777777777778,  0.237845627029499 ]
    mass: 72.640000
    reduced_to: 1
  - symbol: Ge # 27
    coordinates: [  0.188888888888890,  0.077777777777778,  0.237845627029499 ]
    mass: 72.640000
    reduced_to: 1
  - symbol: Ge # 28
    coordinates: [  0.288888888888890,  0.177777777777778,  0.237845627029499 ]
    mass: 72.640000
    reduced_to: 1
  - symbol: Ge # 29
    coordinates: [  0.388888888888890,  0.277777777777778,  0.237845627029499 ]
    mass: 72.640000
    reduced_to: 1
  - symbol: Ge # 30
    coordinates: [  0.488888888888890,  0.377777777777778,  0.237845627029499 ]
    mass: 72.640000
    reduced_to: 1
  - symbol: Ge # 31
    coordinates: [  0.000000000000000,  0.000000000000000,  0.571178960362828 ]
    mass: 72.640000
    reduced_to: 1
  - symbol: Ge # 32
    coordinates: [  0.100000000000000,  0.100000000000000,  0.571178960362828 ]
    mass: 72.640000
    reduced_to: 1
  - symbol: Ge # 33
    coordinates: [  0.200000000000000,  0.200000000000000,  0.571178960362828 ]
    mass: 72.640000
    reduced_to: 1
  - symbol: Ge # 34
    coordinates: [  0.300000000000000,  0.300000000000000,  0.571178960362828 ]
    mass: 72.640000
    reduced_to: 1
  - symbol: Ge # 35
    coordinates: [  0.400000000000000,  0.400000000000000,  0.571178960362828 ]
    mass: 72.640000
    reduced_to: 1
  - symbol: Ge # 36
    coordinates: [  0.500000000000000,  0.500000000000000,  0.571178960362828 ]
    mass: 72.640000
    reduced_to: 1
  - symbol: Ge # 37
    coordinates: [  0.600000000000000,  0.600000000000000,  0.571178960362828 ]
    mass: 72.640000
    reduced_to: 1
  - symbol: Ge # 38
    coordinates: [  0.700000000000000,  0.700000000000000,  0.571178960362828 ]
    mass: 72.640000
    reduced_to: 1
  - symbol: Ge # 39
    coordinates: [  0.800000000000000,  0.800000000000000,  0.571178960362828 ]
    mass: 72.640000
    reduced_to: 1
  - symbol: Ge # 40
    coordinates: [  0.900000000000000,  0.900000000000000,  0.571178960362828 ]
    mass: 72.640000
    reduced_to: 1
  - symbol: Ge # 41
    coordinates: [  0.833333333333333,  0.166666666666667,  0.571178960362828 ]
    mass: 72.640000
    reduced_to: 1
  - symbol: Ge # 42
    coordinates: [  0.933333333333333,  0.266666666666667,  0.571178960362828 ]
    mass: 72.640000
    reduced_to: 1
  - symbol: Ge # 43
    coordinates: [  0.033333333333333,  0.366666666666667,  0.571178960362828 ]
    mass: 72.640000
    reduced_to: 1
  - symbol: Ge # 44
    coordinates: [  0.133333333333333,  0.466666666666667,  0.571178960362828 ]
    mass: 72.640000
    reduced_to: 1
  - symbol: Ge # 45
    coordinates: [  0.233333333333333,  0.566666666666667,  0.571178960362828 ]
    mass: 72.640000
    reduced_to: 1
  - symbol: Ge # 46
    coordinates: [  0.333333333333333,  0.666666666666667,  0.571178960362828 ]
    mass: 72.640000
    reduced_to: 1
  - symbol: Ge # 47
    coordinates: [  0.433333333333333,  0.766666666666667,  0.571178960362828 ]
    mass: 72.640000
    reduced_to: 1
  - symbol: Ge # 48
    coordinates: [  0.533333333333333,  0.866666666666667,  0.571178960362828 ]
    mass: 72.640000
    reduced_to: 1
  - symbol: Ge # 49
    coordinates: [  0.633333333333333,  0.966666666666667,  0.571178960362828 ]
    mass: 72.640000
    reduced_to: 1
  - symbol: Ge # 50
    coordinates: [  0.733333333333333,  0.066666666666667,  0.571178960362828 ]
    mass: 72.640000
    reduced_to: 1
  - symbol: Ge # 51
    coordinates: [  0.666666666666667,  0.333333333333333,  0.571178960362828 ]
    mass: 72.640000
    reduced_to: 1
  - symbol: Ge # 52
    coordinates: [  0.766666666666667,  0.433333333333333,  0.571178960362828 ]
    mass: 72.640000
    reduced_to: 1
  - symbol: Ge # 53
    coordinates: [  0.866666666666667,  0.533333333333333,  0.571178960362828 ]
    mass: 72.640000
    reduced_to: 1
  - symbol: Ge # 54
    coordinates: [  0.966666666666667,  0.633333333333333,  0.571178960362828 ]
    mass: 72.640000
    reduced_to: 1
  - symbol: Ge # 55
    coordinates: [  0.066666666666667,  0.733333333333333,  0.571178960362828 ]
    mass: 72.640000
    reduced_to: 1
  - symbol: Ge # 56
    coordinates: [  0.166666666666667,  0.833333333333333,  0.571178960362828 ]
    mass: 72.640000
    reduced_to: 1
  - symbol: Ge # 57
    coordinates: [  0.266666666666667,  0.933333333333333,  0.571178960362828 ]
    mass: 72.640000
    reduced_to: 1
  - symbol: Ge # 58
    coordinates: [  0.366666666666667,  0.033333333333333,  0.571178960362828 ]
    mass: 72.640000
    reduced_to: 1
  - symbol: Ge # 59
    coordinates: [  0.466666666666667,  0.133333333333333,  0.571178960362828 ]
    mass: 72.640000
    reduced_to: 1
  - symbol: Ge # 60
    coordinates: [  0.566666666666667,  0.233333333333333,  0.571178960362828 ]
    mass: 72.640000
    reduced_to: 1
  - symbol: Ge # 61
    coordinates: [  0.011111111111110,  0.122222222222222,  0.904512293696163 ]
    mass: 72.640000
    reduced_to: 1
  - symbol: Ge # 62
    coordinates: [  0.111111111111110,  0.222222222222222,  0.904512293696163 ]
    mass: 72.640000
    reduced_to: 1
  - symbol: Ge # 63
    coordinates: [  0.211111111111110,  0.322222222222222,  0.904512293696163 ]
    mass: 72.640000
    reduced_to: 1
  - symbol: Ge # 64
    coordinates: [  0.311111111111111,  0.422222222222222,  0.904512293696163 ]
    mass: 72.640000
    reduced_to: 1
  - symbol: Ge # 65
    coordinates: [  0.411111111111110,  0.522222222222222,  0.904512293696163 ]
    mass: 72.640000
    reduced_to: 1
  - symbol: Ge # 66
    coordinates: [  0.511111111111111,  0.622222222222222,  0.904512293696163 ]
    mass: 72.640000
    reduced_to: 1
  - symbol: Ge # 67
    coordinates: [  0.611111111111111,  0.722222222222222,  0.904512293696163 ]
    mass: 72.640000
    reduced_to: 1
  - symbol: Ge # 68
    coordinates: [  0.711111111111111,  0.822222222222222,  0.904512293696163 ]
    mass: 72.640000
    reduced_to: 1
  - symbol: Ge # 69
    coordinates: [  0.811111111111111,  0.922222222222222,  0.904512293696163 ]
    mass: 72.640000
    reduced_to: 1
  - symbol: Ge # 70
    coordinates: [  0.911111111111111,  0.022222222222222,  0.904512293696163 ]
    mass: 72.640000
    reduced_to: 1
  - symbol: Ge # 71
    coordinates: [  0.844444444444444,  0.288888888888889,  0.904512293696163 ]
    mass: 72.640000
    reduced_to: 1
  - symbol: Ge # 72
    coordinates: [  0.944444444444444,  0.388888888888889,  0.904512293696163 ]
    mass: 72.640000
    reduced_to: 1
  - symbol: Ge # 73
    coordinates: [  0.044444444444444,  0.488888888888889,  0.904512293696163 ]
    mass: 72.640000
    reduced_to: 1
  - symbol: Ge # 74
    coordinates: [  0.144444444444444,  0.588888888888889,  0.904512293696163 ]
    mass: 72.640000
    reduced_to: 1
  - symbol: Ge # 75
    coordinates: [  0.244444444444444,  0.688888888888889,  0.904512293696163 ]
    mass: 72.640000
    reduced_to: 1
  - symbol: Ge # 76
    coordinates: [  0.344444444444444,  0.788888888888889,  0.904512293696163 ]
    mass: 72.640000
    reduced_to: 1
  - symbol: Ge # 77
    coordinates: [  0.444444444444444,  0.888888888888889,  0.904512293696163 ]
    mass: 72.640000
    reduced_to: 1
  - symbol: Ge # 78
    coordinates: [  0.544444444444444,  0.988888888888889,  0.904512293696163 ]
    mass: 72.640000
    reduced_to: 1
  - symbol: Ge # 79
    coordinates: [  0.644444444444444,  0.088888888888889,  0.904512293696163 ]
    mass: 72.640000
    reduced_to: 1
  - symbol: Ge # 80
    coordinates: [  0.744444444444444,  0.188888888888889,  0.904512293696163 ]
    mass: 72.640000
    reduced_to: 1
  - symbol: Ge # 81
    coordinates: [  0.677777777777777,  0.455555555555556,  0.904512293696163 ]
    mass: 72.640000
    reduced_to: 1
  - symbol: Ge # 82
    coordinates: [  0.777777777777777,  0.555555555555556,  0.904512293696163 ]
    mass: 72.640000
    reduced_to: 1
  - symbol: Ge # 83
    coordinates: [  0.877777777777777,  0.655555555555556,  0.904512293696163 ]
    mass: 72.640000
    reduced_to: 1
  - symbol: Ge # 84
    coordinates: [  0.977777777777777,  0.755555555555556,  0.904512293696163 ]
    mass: 72.640000
    reduced_to: 1
  - symbol: Ge # 85
    coordinates: [  0.077777777777777,  0.855555555555556,  0.904512293696163 ]
    mass: 72.640000
    reduced_to: 1
  - symbol: Ge # 86
    coordinates: [  0.177777777777777,  0.955555555555556,  0.904512293696163 ]
    mass: 72.640000
    reduced_to: 1
  - symbol: Ge # 87
    coordinates: [  0.277777777777777,  0.055555555555556,  0.904512293696163 ]
    mass: 72.640000
    reduced_to: 1
  - symbol: Ge # 88
    coordinates: [  0.377777777777777,  0.155555555555556,  0.904512293696163 ]
    mass: 72.640000
    reduced_to: 1
  - symbol: Ge # 89
    coordinates: [  0.477777777777777,  0.255555555555556,  0.904512293696163 ]
    mass: 72.640000
    reduced_to: 1
  - symbol: Ge # 90
    coordinates: [  0.577777777777777,  0.355555555555556,  0.904512293696163 ]
    mass: 72.640000
    reduced_to: 1
  - symbol: Sb # 91
    coordinates: [  0.922222222222223,  0.144444444444444,  0.092681274560897 ]
    mass: 121.760000
    reduced_to: 91
  - symbol: Sb # 92
    coordinates: [  0.022222222222223,  0.244444444444444,  0.092681274560897 ]
    mass: 121.760000
    reduced_to: 91
  - symbol: Sb # 93
    coordinates: [  0.122222222222223,  0.344444444444444,  0.092681274560897 ]
    mass: 121.760000
    reduced_to: 91
  - symbol: Sb # 94
    coordinates: [  0.222222222222223,  0.444444444444444,  0.092681274560897 ]
    mass: 121.760000
    reduced_to: 91
  - symbol: Sb # 95
    coordinates: [  0.322222222222223,  0.544444444444444,  0.092681274560897 ]
    mass: 121.760000
    reduced_to: 91
  - symbol: Sb # 96
    coordinates: [  0.422222222222223,  0.644444444444444,  0.092681274560897 ]
    mass: 121.760000
    reduced_to: 91
  - symbol: Sb # 97
    coordinates: [  0.522222222222223,  0.744444444444444,  0.092681274560897 ]
    mass: 121.760000
    reduced_to: 91
  - symbol: Sb # 98
    coordinates: [  0.622222222222223,  0.844444444444444,  0.092681274560897 ]
    mass: 121.760000
    reduced_to: 91
  - symbol: Sb # 99
    coordinates: [  0.722222222222223,  0.944444444444444,  0.092681274560897 ]
    mass: 121.760000
    reduced_to: 91
  - symbol: Sb # 100
    coordinates: [  0.822222222222223,  0.044444444444444,  0.092681274560897 ]
    mass: 121.760000
    reduced_to: 91
  - symbol: Sb # 101
    coordinates: [  0.755555555555556,  0.311111111111111,  0.092681274560897 ]
    mass: 121.760000
    reduced_to: 91
  - symbol: Sb # 102
    coordinates: [  0.855555555555556,  0.411111111111111,  0.092681274560897 ]
    mass: 121.760000
    reduced_to: 91
  - symbol: Sb # 103
    coordinates: [  0.955555555555556,  0.511111111111111,  0.092681274560897 ]
    mass: 121.760000
    reduced_to: 91
  - symbol: Sb # 104
    coordinates: [  0.055555555555556,  0.611111111111111,  0.092681274560897 ]
    mass: 121.760000
    reduced_to: 91
  - symbol: Sb # 105
    coordinates: [  0.155555555555556,  0.711111111111111,  0.092681274560897 ]
    mass: 121.760000
    reduced_to: 91
  - symbol: Sb # 106
    coordinates: [  0.255555555555556,  0.811111111111111,  0.092681274560897 ]
    mass: 121.760000
    reduced_to: 91
  - symbol: Sb # 107
    coordinates: [  0.355555555555556,  0.911111111111111,  0.092681274560897 ]
    mass: 121.760000
    reduced_to: 91
  - symbol: Sb # 108
    coordinates: [  0.455555555555556,  0.011111111111111,  0.092681274560897 ]
    mass: 121.760000
    reduced_to: 91
  - symbol: Sb # 109
    coordinates: [  0.555555555555556,  0.111111111111111,  0.092681274560897 ]
    mass: 121.760000
    reduced_to: 91
  - symbol: Sb # 110
    coordinates: [  0.655555555555556,  0.211111111111111,  0.092681274560897 ]
    mass: 121.760000
    reduced_to: 91
  - symbol: Sb # 111
    coordinates: [  0.588888888888889,  0.477777777777778,  0.092681274560897 ]
    mass: 121.760000
    reduced_to: 91
  - symbol: Sb # 112
    coordinates: [  0.688888888888890,  0.577777777777778,  0.092681274560897 ]
    mass: 121.760000
    reduced_to: 91
  - symbol: Sb # 113
    coordinates: [  0.788888888888890,  0.677777777777778,  0.092681274560897 ]
    mass: 121.760000
    reduced_to: 91
  - symbol: Sb # 114
    coordinates: [  0.888888888888890,  0.777777777777778,  0.092681274560897 ]
    mass: 121.760000
    reduced_to: 91
  - symbol: Sb # 115
    coordinates: [  0.988888888888890,  0.877777777777778,  0.092681274560897 ]
    mass: 121.760000
    reduced_to: 91
  - symbol: Sb # 116
    coordinates: [  0.088888888888890,  0.977777777777778,  0.092681274560897 ]
    mass: 121.760000
    reduced_to: 91
  - symbol: Sb # 117
    coordinates: [  0.188888888888890,  0.077777777777778,  0.092681274560897 ]
    mass: 121.760000
    reduced_to: 91
  - symbol: Sb # 118
    coordinates: [  0.288888888888890,  0.177777777777778,  0.092681274560897 ]
    mass: 121.760000
    reduced_to: 91
  - symbol: Sb # 119
    coordinates: [  0.388888888888890,  0.277777777777778,  0.092681274560897 ]
    mass: 121.760000
    reduced_to: 91
  - symbol: Sb # 120
    coordinates: [  0.488888888888890,  0.377777777777778,  0.092681274560897 ]
    mass: 121.760000
    reduced_to: 91
  - symbol: Sb # 121
    coordinates: [  0.011111111111110,  0.122222222222222,  0.331039088943656 ]
    mass: 121.760000
    reduced_to: 121
  - symbol: Sb # 122
    coordinates: [  0.111111111111110,  0.222222222222222,  0.331039088943656 ]
    mass: 121.760000
    reduced_to: 121
  - symbol: Sb # 123
    coordinates: [  0.211111111111110,  0.322222222222222,  0.331039088943656 ]
    mass: 121.760000
    reduced_to: 121
  - symbol: Sb # 124
    coordinates: [  0.311111111111111,  0.422222222222222,  0.331039088943656 ]
    mass: 121.760000
    reduced_to: 121
  - symbol: Sb # 125
    coordinates: [  0.411111111111110,  0.522222222222222,  0.331039088943656 ]
    mass: 121.760000
    reduced_to: 121
  - symbol: Sb # 126
    coordinates: [  0.511111111111111,  0.622222222222222,  0.331039088943656 ]
    mass: 121.760000
    reduced_to: 121
  - symbol: Sb # 127
    coordinates: [  0.611111111111111,  0.722222222222222,  0.331039088943656 ]
    mass: 121.760000
    reduced_to: 121
  - symbol: Sb # 128
    coordinates: [  0.711111111111111,  0.822222222222222,  0.331039088943656 ]
    mass: 121.760000
    reduced_to: 121
  - symbol: Sb # 129
    coordinates: [  0.811111111111111,  0.922222222222222,  0.331039088943656 ]
    mass: 121.760000
    reduced_to: 121
  - symbol: Sb # 130
    coordinates: [  0.911111111111111,  0.022222222222222,  0.331039088943656 ]
    mass: 121.760000
    reduced_to: 121
  - symbol: Sb # 131
    coordinates: [  0.844444444444444,  0.288888888888889,  0.331039088943656 ]
    mass: 121.760000
    reduced_to: 121
  - symbol: Sb # 132
    coordinates: [  0.944444444444444,  0.388888888888889,  0.331039088943656 ]
    mass: 121.760000
    reduced_to: 121
  - symbol: Sb # 133
    coordinates: [  0.044444444444444,  0.488888888888889,  0.331039088943656 ]
    mass: 121.760000
    reduced_to: 121
  - symbol: Sb # 134
    coordinates: [  0.144444444444444,  0.588888888888889,  0.331039088943656 ]
    mass: 121.760000
    reduced_to: 121
  - symbol: Sb # 135
    coordinates: [  0.244444444444444,  0.688888888888889,  0.331039088943656 ]
    mass: 121.760000
    reduced_to: 121
  - symbol: Sb # 136
    coordinates: [  0.344444444444444,  0.788888888888889,  0.331039088943656 ]
    mass: 121.760000
    reduced_to: 121
  - symbol: Sb # 137
    coordinates: [  0.444444444444444,  0.888888888888889,  0.331039088943656 ]
    mass: 121.760000
    reduced_to: 121
  - symbol: Sb # 138
    coordinates: [  0.544444444444444,  0.988888888888889,  0.331039088943656 ]
    mass: 121.760000
    reduced_to: 121
  - symbol: Sb # 139
    coordinates: [  0.644444444444444,  0.088888888888889,  0.331039088943656 ]
    mass: 121.760000
    reduced_to: 121
  - symbol: Sb # 140
    coordinates: [  0.744444444444444,  0.188888888888889,  0.331039088943656 ]
    mass: 121.760000
    reduced_to: 121
  - symbol: Sb # 141
    coordinates: [  0.677777777777777,  0.455555555555556,  0.331039088943656 ]
    mass: 121.760000
    reduced_to: 121
  - symbol: Sb # 142
    coordinates: [  0.777777777777777,  0.555555555555556,  0.331039088943656 ]
    mass: 121.760000
    reduced_to: 121
  - symbol: Sb # 143
    coordinates: [  0.877777777777777,  0.655555555555556,  0.331039088943656 ]
    mass: 121.760000
    reduced_to: 121
  - symbol: Sb # 144
    coordinates: [  0.977777777777777,  0.755555555555556,  0.331039088943656 ]
    mass: 121.760000
    reduced_to: 121
  - symbol: Sb # 145
    coordinates: [  0.077777777777777,  0.855555555555556,  0.331039088943656 ]
    mass: 121.760000
    reduced_to: 121
  - symbol: Sb # 146
    coordinates: [  0.177777777777777,  0.955555555555556,  0.331039088943656 ]
    mass: 121.760000
    reduced_to: 121
  - symbol: Sb # 147
    coordinates: [  0.277777777777777,  0.055555555555556,  0.331039088943656 ]
    mass: 121.760000
    reduced_to: 121
  - symbol: Sb # 148
    coordinates: [  0.377777777777777,  0.155555555555556,  0.331039088943656 ]
    mass: 121.760000
    reduced_to: 121
  - symbol: Sb # 149
    coordinates: [  0.477777777777777,  0.255555555555556,  0.331039088943656 ]
    mass: 121.760000
    reduced_to: 121
  - symbol: Sb # 150
    coordinates: [  0.577777777777777,  0.355555555555556,  0.331039088943656 ]
    mass: 121.760000
    reduced_to: 121
  - symbol: Sb # 151
    coordinates: [  0.000000000000000,  0.000000000000000,  0.426014607894225 ]
    mass: 121.760000
    reduced_to: 91
  - symbol: Sb # 152
    coordinates: [  0.100000000000000,  0.100000000000000,  0.426014607894225 ]
    mass: 121.760000
    reduced_to: 91
  - symbol: Sb # 153
    coordinates: [  0.200000000000000,  0.200000000000000,  0.426014607894225 ]
    mass: 121.760000
    reduced_to: 91
  - symbol: Sb # 154
    coordinates: [  0.300000000000000,  0.300000000000000,  0.426014607894225 ]
    mass: 121.760000
    reduced_to: 91
  - symbol: Sb # 155
    coordinates: [  0.400000000000000,  0.400000000000000,  0.426014607894225 ]
    mass: 121.760000
    reduced_to: 91
  - symbol: Sb # 156
    coordinates: [  0.500000000000000,  0.500000000000000,  0.426014607894225 ]
    mass: 121.760000
    reduced_to: 91
  - symbol: Sb # 157
    coordinates: [  0.600000000000000,  0.600000000000000,  0.426014607894225 ]
    mass: 121.760000
    reduced_to: 91
  - symbol: Sb # 158
    coordinates: [  0.700000000000000,  0.700000000000000,  0.426014607894225 ]
    mass: 121.760000
    reduced_to: 91
  - symbol: Sb # 159
    coordinates: [  0.800000000000000,  0.800000000000000,  0.426014607894225 ]
    mass: 121.760000
    reduced_to: 91
  - symbol: Sb # 160
    coordinates: [  0.900000000000000,  0.900000000000000,  0.426014607894225 ]
    mass: 121.760000
    reduced_to: 91
  - symbol: Sb # 161
    coordinates: [  0.833333333333333,  0.166666666666667,  0.426014607894225 ]
    mass: 121.760000
    reduced_to: 91
  - symbol: Sb # 162
    coordinates: [  0.933333333333333,  0.266666666666667,  0.426014607894225 ]
    mass: 121.760000
    reduced_to: 91
  - symbol: Sb # 163
    coordinates: [  0.033333333333333,  0.366666666666667,  0.426014607894225 ]
    mass: 121.760000
    reduced_to: 91
  - symbol: Sb # 164
    coordinates: [  0.133333333333333,  0.466666666666667,  0.426014607894225 ]
    mass: 121.760000
    reduced_to: 91
  - symbol: Sb # 165
    coordinates: [  0.233333333333333,  0.566666666666667,  0.426014607894225 ]
    mass: 121.760000
    reduced_to: 91
  - symbol: Sb # 166
    coordinates: [  0.333333333333333,  0.666666666666667,  0.426014607894225 ]
    mass: 121.760000
    reduced_to: 91
  - symbol: Sb # 167
    coordinates: [  0.433333333333333,  0.766666666666667,  0.426014607894225 ]
    mass: 121.760000
    reduced_to: 91
  - symbol: Sb # 168
    coordinates: [  0.533333333333333,  0.866666666666667,  0.426014607894225 ]
    mass: 121.760000
    reduced_to: 91
  - symbol: Sb # 169
    coordinates: [  0.633333333333333,  0.966666666666667,  0.426014607894225 ]
    mass: 121.760000
    reduced_to: 91
  - symbol: Sb # 170
    coordinates: [  0.733333333333333,  0.066666666666667,  0.426014607894225 ]
    mass: 121.760000
    reduced_to: 91
  - symbol: Sb # 171
    coordinates: [  0.666666666666667,  0.333333333333333,  0.426014607894225 ]
    mass: 121.760000
    reduced_to: 91
  - symbol: Sb # 172
    coordinates: [  0.766666666666667,  0.433333333333333,  0.426014607894225 ]
    mass: 121.760000
    reduced_to: 91
  - symbol: Sb # 173
    coordinates: [  0.866666666666667,  0.533333333333333,  0.426014607894225 ]
    mass: 121.760000
    reduced_to: 91
  - symbol: Sb # 174
    coordinates: [  0.966666666666667,  0.633333333333333,  0.426014607894225 ]
    mass: 121.760000
    reduced_to: 91
  - symbol: Sb # 175
    coordinates: [  0.066666666666667,  0.733333333333333,  0.426014607894225 ]
    mass: 121.760000
    reduced_to: 91
  - symbol: Sb # 176
    coordinates: [  0.166666666666667,  0.833333333333333,  0.426014607894225 ]
    mass: 121.760000
    reduced_to: 91
  - symbol: Sb # 177
    coordinates: [  0.266666666666667,  0.933333333333333,  0.426014607894225 ]