phonopy:
  version: "2.21.0"
  frequency_unit_conversion_factor: 15.633302
  symmetry_tolerance: 1.00000e-04

space_group:
  type: "Pnma"
  number: 62
  Hall_symbol: "-P 2ac 2n"

primitive_matrix:
- [  0.000000000000000, -1.000000000000000,  0.000000000000000 ]
- [  1.000000000000000,  0.000000000000000,  0.000000000000000 ]
- [  0.000000000000000,  0.000000000000000,  1.000000000000000 ]

supercell_matrix:
- [   5,   0,   0 ]
- [   0,   2,   0 ]
- [   0,   0,   2 ]

primitive_cell:
  lattice:
  - [    -0.000000000000001,    10.697954994101149,     0.000000000000001 ] # a
  - [    -4.566169907214221,     0.000000000000000,    -0.000000000000000 ] # b
  - [     0.000000000000000,     0.000000000000000,    11.749079837000677 ] # c
  points:
  - symbol: Ba # 1
    coordinates: [  0.247152136692180,  0.750000000000000,  0.820963528192875 ]
    mass: 137.327000
  - symbol: Ba # 2
    coordinates: [  0.752847863307820,  0.250000000000000,  0.179036471807125 ]
    mass: 137.327000
  - symbol: Ba # 3
    coordinates: [  0.747152136692180,  0.750000000000000,  0.679036471807125 ]
    mass: 137.327000
  - symbol: Ba # 4
    coordinates: [  0.252847863307820,  0.250000000000000,  0.320963528192875 ]
    mass: 137.327000
  - symbol: Zn # 5
    coordinates: [  0.902079777193502,  0.250000000000000,  0.452130398471529 ]
    mass: 65.380000
  - symbol: Zn # 6
    coordinates: [  0.097920222806498,  0.750000000000000,  0.547869601528471 ]
    mass: 65.380000
  - symbol: Zn # 7
    coordinates: [  0.597920222806498,  0.750000000000000,  0.952130398471529 ]
    mass: 65.380000
  - symbol: Zn # 8
    coordinates: [  0.402079777193502,  0.250000000000000,  0.047869601528471 ]
    mass: 65.380000
  - symbol: Zn # 9
    coordinates: [  0.445982631415495,  0.250000000000000,  0.620553249794084 ]
    mass: 65.380000
  - symbol: Zn # 10
    coordinates: [  0.554017368584505,  0.750000000000000,  0.379446750205916 ]
    mass: 65.380000
  - symbol: Zn # 11
    coordinates: [  0.945982631415495,  0.250000000000000,  0.879446750205916 ]
    mass: 65.380000
  - symbol: Zn # 12
    coordinates: [  0.054017368584505,  0.750000000000000,  0.120553249794084 ]
    mass: 65.380000
  - symbol: Sb # 13
    coordinates: [  0.149515375633037,  0.250000000000000,  0.035488925724003 ]
    mass: 121.760000
  - symbol: Sb # 14
    coordinates: [  0.850484624366963,  0.750000000000000,  0.964511074275997 ]
    mass: 121.760000
  - symbol: Sb # 15
    coordinates: [  0.350484624366963,  0.750000000000000,  0.535488925724003 ]
    mass: 121.760000
  - symbol: Sb # 16
    coordinates: [  0.649515375633037,  0.250000000000000,  0.464511074275997 ]
    mass: 121.760000
  - symbol: Sb # 17
    coordinates: [  0.025602398915553,  0.250000000000000,  0.661639707761241 ]
    mass: 121.760000
  - symbol: Sb # 18
    coordinates: [  0.974397601084447,  0.750000000000000,  0.338360292238767 ]
    mass: 121.760000
  - symbol: Sb # 19
    coordinates: [  0.525602398915553,  0.250000000000000,  0.838360292238759 ]
    mass: 121.760000
  - symbol: Sb # 20
    coordinates: [  0.474397601084447,  0.750000000000000,  0.161639707761241 ]
    mass: 121.760000
  reciprocal_lattice: # without 2pi
  - [    -0.000000000000000,     0.093475809213200,     0.000000000000000 ] # a*
  - [    -0.219001925097021,    -0.000000000000000,     0.000000000000000 ] # b*
  - [    -0.000000000000000,    -0.000000000000000,     0.085113048330028 ] # c*

unit_cell:
  lattice:
  - [     4.566169907214221,    -0.000000000000000,     0.000000000000000 ] # a
  - [    -0.000000000000001,    10.697954994101149,     0.000000000000001 ] # b
  - [     0.000000000000000,     0.000000000000000,    11.749079837000677 ] # c
  points:
  - symbol: Ba # 1
    coordinates: [  0.250000000000000,  0.247152136692180,  0.820963528192875 ]
    mass: 137.327000
    reduced_to: 1
  - symbol: Ba # 2
    coordinates: [  0.750000000000000,  0.752847863307820,  0.179036471807125 ]
    mass: 137.327000
    reduced_to: 2
  - symbol: Ba # 3
    coordinates: [  0.250000000000000,  0.747152136692180,  0.679036471807125 ]
    mass: 137.327000
    reduced_to: 3
  - symbol: Ba # 4
    coordinates: [  0.750000000000000,  0.252847863307820,  0.320963528192875 ]
    mass: 137.327000
    reduced_to: 4
  - symbol: Zn # 5
    coordinates: [  0.750000000000000,  0.902079777193502,  0.452130398471529 ]
    mass: 65.380000
    reduced_to: 5
  - symbol: Zn # 6
    coordinates: [  0.250000000000000,  0.097920222806498,  0.547869601528471 ]
    mass: 65.380000
    reduced_to: 6
  - symbol: Zn # 7
    coordinates: [  0.250000000000000,  0.597920222806498,  0.952130398471529 ]
    mass: 65.380000
    reduced_to: 7
  - symbol: Zn # 8
    coordinates: [  0.750000000000000,  0.402079777193502,  0.047869601528471 ]
    mass: 65.380000
    reduced_to: 8
  - symbol: Zn # 9
    coordinates: [  0.750000000000000,  0.445982631415495,  0.620553249794084 ]
    mass: 65.380000
    reduced_to: 9
  - symbol: Zn # 10
    coordinates: [  0.250000000000000,  0.554017368584505,  0.379446750205916 ]
    mass: 65.380000
    reduced_to: 10
  - symbol: Zn # 11
    coordinates: [  0.750000000000000,  0.945982631415495,  0.879446750205916 ]
    mass: 65.380000
    reduced_to: 11
  - symbol: Zn # 12
    coordinates: [  0.250000000000000,  0.054017368584505,  0.120553249794084 ]
    mass: 65.380000
    reduced_to: 12
  - symbol: Sb # 13
    coordinates: [  0.750000000000000,  0.149515375633037,  0.035488925724003 ]
    mass: 121.760000
    reduced_to: 13
  - symbol: Sb # 14
    coordinates: [  0.250000000000000,  0.850484624366963,  0.964511074275997 ]
    mass: 121.760000
    reduced_to: 14
  - symbol: Sb # 15
    coordinates: [  0.250000000000000,  0.350484624366963,  0.535488925724003 ]
    mass: 121.760000
    reduced_to: 15
  - symbol: Sb # 16
    coordinates: [  0.750000000000000,  0.649515375633037,  0.464511074275997 ]
    mass: 121.760000
    reduced_to: 16
  - symbol: Sb # 17
    coordinates: [  0.750000000000000,  0.025602398915553,  0.661639707761241 ]
    mass: 121.760000
    reduced_to: 17
  - symbol: Sb # 18
    coordinates: [  0.250000000000000,  0.974397601084447,  0.338360292238767 ]
    mass: 121.760000
    reduced_to: 18
  - symbol: Sb # 19
    coordinates: [  0.750000000000000,  0.525602398915553,  0.838360292238759 ]
    mass: 121.760000
    reduced_to: 19
  - symbol: Sb # 20
    coordinates: [  0.250000000000000,  0.474397601084447,  0.161639707761241 ]
    mass: 121.760000
    reduced_to: 20

supercell:
  lattice:
  - [    22.830849536071103,     0.000000000000000,     0.000000000000001 ] # a
  - [    -0.000000000000001,    21.395909988202298,     0.000000000000001 ] # b
  - [     0.000000000000000,     0.000000000000000,    23.498159674001354 ] # c
  points:
  - symbol: Ba # 1
    coordinates: [  0.050000000000000,  0.123576068346090,  0.410481764096438 ]
    mass: 137.327000
    reduced_to: 1
  - symbol: Ba # 2
    coordinates: [  0.250000000000000,  0.123576068346090,  0.410481764096438 ]
    mass: 137.327000
    reduced_to: 1
  - symbol: Ba # 3
    coordinates: [  0.450000000000000,  0.123576068346090,  0.410481764096438 ]
    mass: 137.327000
    reduced_to: 1
  - symbol: Ba # 4
    coordinates: [  0.650000000000000,  0.123576068346090,  0.410481764096438 ]
    mass: 137.327000
    reduced_to: 1
  - symbol: Ba # 5
    coordinates: [  0.850000000000000,  0.123576068346090,  0.410481764096438 ]
    mass: 137.327000
    reduced_to: 1
  - symbol: Ba # 6
    coordinates: [  0.050000000000000,  0.623576068346090,  0.410481764096438 ]
    mass: 137.327000
    reduced_to: 1
  - symbol: Ba # 7
    coordinates: [  0.250000000000000,  0.623576068346090,  0.410481764096438 ]
    mass: 137.327000
    reduced_to: 1
  - symbol: Ba # 8
    coordinates: [  0.450000000000000,  0.623576068346090,  0.410481764096438 ]
    mass: 137.327000
    reduced_to: 1
  - symbol: Ba # 9
    coordinates: [  0.650000000000000,  0.623576068346090,  0.410481764096438 ]
    mass: 137.327000
    reduced_to: 1
  - symbol: Ba # 10
    coordinates: [  0.850000000000000,  0.623576068346090,  0.410481764096438 ]
    mass: 137.327000
    reduced_to: 1
  - symbol: Ba # 11
    coordinates: [  0.050000000000000,  0.123576068346090,  0.910481764096438 ]
    mass: 137.327000
    reduced_to: 1
  - symbol: Ba # 12
    coordinates: [  0.250000000000000,  0.123576068346090,  0.910481764096438 ]
    mass: 137.327000
    reduced_to: 1
  - symbol: Ba # 13
    coordinates: [  0.450000000000000,  0.123576068346090,  0.910481764096438 ]
    mass: 137.327000
    reduced_to: 1
  - symbol: Ba # 14
    coordinates: [  0.650000000000000,  0.123576068346090,  0.910481764096438 ]
    mass: 137.327000
    reduced_to: 1
  - symbol: Ba # 15
    coordinates: [  0.850000000000000,  0.123576068346090,  0.910481764096438 ]
    mass: 137.327000
    reduced_to: 1
  - symbol: Ba # 16
    coordinates: [  0.050000000000000,  0.623576068346090,  0.910481764096438 ]
    mass: 137.327000
    reduced_to: 1
  - symbol: Ba # 17
    coordinates: [  0.250000000000000,  0.623576068346090,  0.910481764096438 ]
    mass: 137.327000
    reduced_to: 1
  - symbol: Ba # 18
    coordinates: [  0.450000000000000,  0.623576068346090,  0.910481764096438 ]
    mass: 137.327000
    reduced_to: 1
  - symbol: Ba # 19
    coordinates: [  0.650000000000000,  0.623576068346090,  0.910481764096438 ]
    mass: 137.327000
    reduced_to: 1
  - symbol: Ba # 20
    coordinates: [  0.850000000000000,  0.623576068346090,  0.910481764096438 ]
    mass: 137.327000
    reduced_to: 1
  - symbol: Ba # 21
    coordinates: [  0.150000000000000,  0.376423931653910,  0.089518235903562 ]
    mass: 137.327000
    reduced_to: 21
  - symbol: Ba # 22
    coordinates: [  0.350000000000000,  0.376423931653910,  0.089518235903562 ]
    mass: 137.327000
    reduced_to: 21
  - symbol: Ba # 23
    coordinates: [  0.550000000000000,  0.376423931653910,  0.089518235903562 ]
    mass: 137.327000
    reduced_to: 21
  - symbol: Ba # 24
    coordinates: [  0.750000000000000,  0.376423931653910,  0.089518235903562 ]
    mass: 137.327000
    reduced_to: 21
  - symbol: Ba # 25
    coordinates: [  0.950000000000000,  0.376423931653910,  0.089518235903562 ]
    mass: 137.327000
    reduced_to: 21
  - symbol: Ba # 26
    coordinates: [  0.150000000000000,  0.876423931653910,  0.089518235903562 ]
    mass: 137.327000
    reduced_to: 21
  - symbol: Ba # 27
    coordinates: [  0.350000000000000,  0.876423931653910,  0.089518235903562 ]
    mass: 137.327000
    reduced_to: 21
  - symbol: Ba # 28
    coordinates: [  0.550000000000000,  0.876423931653910,  0.089518235903562 ]
    mass: 137.327000
    reduced_to: 21
  - symbol: Ba # 29
    coordinates: [  0.750000000000000,  0.876423931653910,  0.089518235903562 ]
    mass: 137.327000
    reduced_to: 21
  - symbol: Ba # 30
    coordinates: [  0.950000000000000,  0.876423931653910,  0.089518235903562 ]
    mass: 137.327000
    reduced_to: 21
  - symbol: Ba # 31
    coordinates: [  0.150000000000000,  0.376423931653910,  0.589518235903562 ]
    mass: 137.327000
    reduced_to: 21
  - symbol: Ba # 32
    coordinates: [  0.350000000000000,  0.376423931653910,  0.589518235903562 ]
    mass: 137.327000
    reduced_to: 21
  - symbol: Ba # 33
    coordinates: [  0.550000000000000,  0.376423931653910,  0.589518235903562 ]
    mass: 137.327000
    reduced_to: 21
  - symbol: Ba # 34
    coordinates: [  0.750000000000000,  0.376423931653910,  0.589518235903562 ]
    mass: 137.327000
    reduced_to: 21
  - symbol: Ba # 35
    coordinates: [  0.950000000000000,  0.376423931653910,  0.589518235903562 ]
    mass: 137.327000
    reduced_to: 21
  - symbol: Ba # 36
    coordinates: [  0.150000000000000,  0.876423931653910,  0.589518235903562 ]
    mass: 137.327000
    reduced_to: 21
  - symbol: Ba # 37
    coordinates: [  0.350000000000000,  0.876423931653910,  0.589518235903562 ]
    mass: 137.327000
    reduced_to: 21
  - symbol: Ba # 38
    coordinates: [  0.550000000000000,  0.876423931653910,  0.589518235903562 ]
    mass: 137.327000
    reduced_to: 21
  - symbol: Ba # 39
    coordinates: [  0.750000000000000,  0.876423931653910,  0.589518235903562 ]
    mass: 137.327000
    reduced_to: 21
  - symbol: Ba # 40
    coordinates: [  0.950000000000000,  0.876423931653910,  0.589518235903562 ]
    mass: 137.327000
    reduced_to: 21
  - symbol: Ba # 41
    coordinates: [  0.050000000000000,  0.373576068346090,  0.339518235903562 ]
    mass: 137.327000
    reduced_to: 41
  - symbol: Ba # 42
    coordinates: [  0.250000000000000,  0.373576068346090,  0.339518235903562 ]
    mass: 137.327000
    reduced_to: 41
  - symbol: Ba # 43
    coordinates: [  0.450000000000000,  0.373576068346090,  0.339518235903562 ]
    mass: 137.327000
    reduced_to: 41
  - symbol: Ba # 44
    coordinates: [  0.650000000000000,  0.373576068346090,  0.339518235903562 ]
    mass: 137.327000
    reduced_to: 41
  - symbol: Ba # 45
    coordinates: [  0.850000000000000,  0.373576068346090,  0.339518235903562 ]
    mass: 137.327000
    reduced_to: 41
  - symbol: Ba # 46
    coordinates: [  0.050000000000000,  0.873576068346090,  0.339518235903562 ]
    mass: 137.327000
    reduced_to: 41
  - symbol: Ba # 47
    coordinates: [  0.250000000000000,  0.873576068346090,  0.339518235903562 ]
    mass: 137.327000
    reduced_to: 41
  - symbol: Ba # 48
    coordinates: [  0.450000000000000,  0.873576068346090,  0.339518235903562 ]
    mass: 137.327000
    reduced_to: 41
  - symbol: Ba # 49
    coordinates: [  0.650000000000000,  0.873576068346090,  0.339518235903562 ]
    mass: 137.327000
    reduced_to: 41
  - symbol: Ba # 50
    coordinates: [  0.850000000000000,  0.873576068346090,  0.339518235903562 ]
    mass: 137.327000
    reduced_to: 41
  - symbol: Ba # 51
    coordinates: [  0.050000000000000,  0.373576068346090,  0.839518235903562 ]
    mass: 137.327000
    reduced_to: 41
  - symbol: Ba # 52
    coordinates: [  0.250000000000000,  0.373576068346090,  0.839518235903562 ]
    mass: 137.327000
    reduced_to: 41
  - symbol: Ba # 53
    coordinates: [  0.450000000000000,  0.373576068346090,  0.839518235903562 ]
    mass: 137.327000
    reduced_to: 41
  - symbol: Ba # 54
    coordinates: [  0.650000000000000,  0.373576068346090,  0.839518235903562 ]
    mass: 137.327000
    reduced_to: 41
  - symbol: Ba # 55
    coordinates: [  0.850000000000000,  0.373576068346090,  0.839518235903562 ]
    mass: 137.327000
    reduced_to: 41
  - symbol: Ba # 56
    coordinates: [  0.050000000000000,  0.873576068346090,  0.839518235903562 ]
    mass: 137.327000
    reduced_to: 41
  - symbol: Ba # 57
    coordinates: [  0.250000000000000,  0.873576068346090,  0.839518235903562 ]
    mass: 137.327000
    reduced_to: 41
  - symbol: Ba # 58
    coordinates: [  0.450000000000000,  0.873576068346090,  0.839518235903562 ]
    mass: 137.327000
    reduced_to: 41
  - symbol: Ba # 59
    coordinates: [  0.650000000000000,  0.873576068346090,  0.839518235903562 ]
    mass: 137.327000
    reduced_to: 41
  - symbol: Ba # 60
    coordinates: [  0.850000000000000,  0.873576068346090,  0.839518235903562 ]
    mass: 137.327000
    reduced_to: 41
  - symbol: Ba # 61
    coordinates: [  0.150000000000000,  0.126423931653910,  0.160481764096438 ]
    mass: 137.327000
    reduced_to: 61
  - symbol: Ba # 62
    coordinates: [  0.350000000000000,  0.126423931653910,  0.160481764096438 ]
    mass: 137.327000
    reduced_to: 61
  - symbol: Ba # 63
    coordinates: [  0.550000000000000,  0.126423931653910,  0.160481764096438 ]
    mass: 137.327000
    reduced_to: 61
  - symbol: Ba # 64
    coordinates: [  0.750000000000000,  0.126423931653910,  0.160481764096438 ]
    mass: 137.327000
    reduced_to: 61
  - symbol: Ba # 65
    coordinates: [  0.950000000000000,  0.126423931653910,  0.160481764096438 ]
    mass: 137.327000
    reduced_to: 61
  - symbol: Ba # 66
    coordinates: [  0.150000000000000,  0.626423931653910,  0.160481764096438 ]
    mass: 137.327000
    reduced_to: 61
  - symbol: Ba # 67
    coordinates: [  0.350000000000000,  0.626423931653910,  0.160481764096438 ]
    mass: 137.327000
    reduced_to: 61
  - symbol: Ba # 68
    coordinates: [  0.550000000000000,  0.626423931653910,  0.160481764096438 ]
    mass: 137.327000
    reduced_to: 61
  - symbol: Ba # 69
    coordinates: [  0.750000000000000,  0.626423931653910,  0.160481764096438 ]
    mass: 137.327000
    reduced_to: 61
  - symbol: Ba # 70
    coordinates: [  0.950000000000000,  0.626423931653910,  0.160481764096438 ]
    mass: 137.327000
    reduced_to: 61
  - symbol: Ba # 71
    coordinates: [  0.150000000000000,  0.126423931653910,  0.660481764096438 ]
    mass: 137.327000
    reduced_to: 61
  - symbol: Ba # 72
    coordinates: [  0.350000000000000,  0.126423931653910,  0.660481764096438 ]
    mass: 137.327000
    reduced_to: 61
  - symbol: Ba # 73
    coordinates: [  0.550000000000000,  0.126423931653910,  0.660481764096438 ]
    mass: 137.327000
    reduced_to: 61
  - symbol: Ba # 74
    coordinates: [  0.750000000000000,  0.126423931653910,  0.660481764096438 ]
    mass: 137.327000
    reduced_to: 61
  - symbol: Ba # 75
    coordinates: [  0.950000000000000,  0.126423931653910,  0.660481764096438 ]
    mass: 137.327000
    reduced_to: 61
  - symbol: Ba # 76
    coordinates: [  0.150000000000000,  0.626423931653910,  0.660481764096438 ]
    mass: 137.327000
    reduced_to: 61
  - symbol: Ba # 77
    coordinates: [  0.350000000000000,  0.626423931653910,  0.660481764096438 ]
    mass: 137.327000
    reduced_to: 61
  - symbol: Ba # 78
    coordinates: [  0.550000000000000,  0.626423931653910,  0.660481764096438 ]
    mass: 137.327000
    reduced_to: 61
  - symbol: Ba # 79
    coordinates: [  0.750000000000000,  0.626423931653910,  0.660481764096438 ]
    mass: 137.327000
    reduced_to: 61
  - symbol: Ba # 80
    coordinates: [  0.950000000000000,  0.626423931653910,  0.660481764096438 ]
    mass: 137.327000
    reduced_to: 61
  - symbol: Zn # 81
    coordinates: [  0.150000000000000,  0.451039888596751,  0.226065199235765 ]
    mass: 65.380000
    reduced_to: 81
  - symbol: Zn # 82
    coordinates: [  0.350000000000000,  0.451039888596751,  0.226065199235765 ]
    mass: 65.380000
    reduced_to: 81
  - symbol: Zn # 83
    coordinates: [  0.550000000000000,  0.451039888596751,  0.226065199235765 ]
    mass: 65.380000
    reduced_to: 81
  - symbol: Zn # 84
    coordinates: [  0.750000000000000,  0.451039888596751,  0.226065199235765 ]
    mass: 65.380000
    reduced_to: 81
  - symbol: Zn # 85
    coordinates: [  0.950000000000000,  0.451039888596751,  0.226065199235765 ]
    mass: 65.380000
    reduced_to: 81
  - symbol: Zn # 86
    coordinates: [  0.150000000000000,  0.951039888596751,  0.226065199235765 ]
    mass: 65.380000
    reduced_to: 81
  - symbol: Zn # 87
    coordinates: [  0.350000000000000,  0.951039888596751,  0.226065199235765 ]
    mass: 65.380000
    reduced_to: 81
  - symbol: Zn # 88
    coordinates: [  0.550000000000000,  0.951039888596751,  0.226065199235765 ]
    mass: 65.380000
    reduced_to: 81
  - symbol: Zn # 89
    coordinates: [  0.750000000000000,  0.951039888596751,  0.226065199235765 ]
    mass: 65.380000
    reduced_to: 81
  - symbol: Zn # 90
    coordinates: [  0.950000000000000,  0.951039888596751,  0.226065199235765 ]
    mass: 65.380000
    reduced_to: 81
  - symbol: Zn # 91
    coordinates: [  0.150000000000000,  0.451039888596751,  0.726065199235765 ]
    mass: 65.380000
    reduced_to: 81
  - symbol: Zn # 92
    coordinates: [  0.350000000000000,  0.451039888596751,  0.726065199235765 ]
    mass: 65.380000
    reduced_to: 81
  - symbol: Zn # 93
    coordinates: [  0.550000000000000,  0.451039888596751,  0.726065199235765 ]
    mass: 65.380000
    reduced_to: 81
  - symbol: Zn # 94
    coordinates: [  0.750000000000000,  0.451039888596751,  0.726065199235765 ]
    mass: 65.380000
    reduced_to: 81
  - symbol: Zn # 95
    coordinates: [  0.950000000000000,  0.451039888596751,  0.726065199235765 ]
    mass: 65.380000
    reduced_to: 81
  - symbol: Zn # 96
    coordinates: [  0.150000000000000,  0.951039888596751,  0.726065199235765 ]
    mass: 65.380000
    reduced_to: 81
  - symbol: Zn # 97
    coordinates: [  0.350000000000000,  0.951039888596751,  0.726065199235765 ]
    mass: 65.380000
    reduced_to: 81
  - symbol: Zn # 98
    coordinates: [  0.550000000000000,  0.951039888596751,  0.726065199235765 ]
    mass: 65.380000
    reduced_to: 81
  - symbol: Zn # 99
    coordinates: [  0.750000000000000,  0.951039888596751,  0.726065199235765 ]
    mass: 65.380000
    reduced_to: 81
  - symbol: Zn # 100
    coordinates: [  0.950000000000000,  0.951039888596751,  0.726065199235765 ]
    mass: 65.380000
    reduced_to: 81
  - symbol: Zn # 101
    coordinates: [  0.050000000000000,  0.048960111403249,  0.273934800764235 ]
    mass: 65.380000
    reduced_to: 101
  - symbol: Zn # 102
    coordinates: [  0.250000000000000,  0.048960111403249,  0.273934800764235 ]
    mass: 65.380000
    reduced_to: 101
  - symbol: Zn # 103
    coordinates: [  0.450000000000000,  0.048960111403249,  0.273934800764235 ]
    mass: 65.380000
    reduced_to: 101
  - symbol: Zn # 104
    coordinates: [  0.650000000000000,  0.048960111403249,  0.273934800764235 ]
    mass: 65.380000
    reduced_to: 101
  - symbol: Zn # 105
    coordinates: [  0.850000000000000,  0.048960111403249,  0.273934800764235 ]
    mass: 65.380000
    reduced_to: 101
  - symbol: Zn # 106
    coordinates: [  0.050000000000000,  0.548960111403249,  0.273934800764235 ]
    mass: 65.380000
    reduced_to: 101
  - symbol: Zn # 107
    coordinates: [  0.250000000000000,  0.548960111403249,  0.273934800764235 ]
    mass: 65.380000
    reduced_to: 101
  - symbol: Zn # 108
    coordinates: [  0.450000000000000,  0.548960111403249,  0.273934800764235 ]
    mass: 65.380000
    reduced_to: 101
  - symbol: Zn # 109
    coordinates: [  0.650000000000000,  0.548960111403249,  0.273934800764235 ]
    mass: 65.380000
    reduced_to: 101
  - symbol: Zn # 110
    coordinates: [  0.850000000000000,  0.548960111403249,  0.273934800764235 ]
    mass: 65.380000
    reduced_to: 101
  - symbol: Zn # 111
    coordinates: [  0.050000000000000,  0.048960111403249,  0.773934800764235 ]
    mass: 65.380000
    reduced_to: 101
  - symbol: Zn # 112
    coordinates: [  0.250000000000000,  0.048960111403249,  0.773934800764235 ]
    mass: 65.380000
    reduced_to: 101
  - symbol: Zn # 113
    coordinates: [  0.450000000000000,  0.048960111403249,  0.773934800764235 ]
    mass: 65.380000
    reduced_to: 101
  - symbol: Zn # 114
    coordinates: [  0.650000000000000,  0.048960111403249,  0.773934800764235 ]
    mass: 65.380000
    reduced_to: 101
  - symbol: Zn # 115
    coordinates: [  0.850000000000000,  0.048960111403249,  0.773934800764235 ]
    mass: 65.380000
    reduced_to: 101
  - symbol: Zn # 116
    coordinates: [  0.050000000000000,  0.548960111403249,  0.773934800764235 ]
    mass: 65.380000
    reduced_to: 101
  - symbol: Zn # 117
    coordinates: [  0.250000000000000,  0.548960111403249,  0.773934800764235 ]
    mass: 65.380000
    reduced_to: 101
  - symbol: Zn # 118
    coordinates: [  0.450000000000000,  0.548960111403249,  0.773934800764235 ]
    mass: 65.380000
    reduced_to: 101
  - symbol: Zn # 119
    coordinates: [  0.650000000000000,  0.548960111403249,  0.773934800764235 ]
    mass: 65.380000
    reduced_to: 101
  - symbol: Zn # 120
    coordinates: [  0.850000000000000,  0.548960111403249,  0.773934800764235 ]
    mass: 65.380000
    reduced_to: 101
  - symbol: Zn # 121
    coordinates: [  0.050000000000000,  0.298960111403249,  0.476065199235765 ]
    mass: 65.380000
    reduced_to: 121
  - symbol: Zn # 122
    coordinates: [  0.250000000000000,  0.298960111403249,  0.476065199235765 ]
    mass: 65.380000
    reduced_to: 121
  - symbol: Zn # 123
    coordinates: [  0.450000000000000,  0.298960111403249,  0.476065199235765 ]
    mass: 65.380000
    reduced_to: 121
  - symbol: Zn # 124
    coordinates: [  0.650000000000000,  0.298960111403249,  0.476065199235765 ]
    mass: 65.380000
    reduced_to: 121
  - symbol: Zn # 125
    coordinates: [  0.850000000000000,  0.298960111403249,  0.476065199235765 ]
    mass: 65.380000
    reduced_to: 121
  - symbol: Zn # 126
    coordinates: [  0.050000000000000,  0.798960111403249,  0.476065199235765 ]
    mass: 65.380000
    reduced_to: 121
  - symbol: Zn # 127
    coordinates: [  0.250000000000000,  0.798960111403249,  0.476065199235765 ]
    mass: 65.380000
    reduced_to: 121
  - symbol: Zn # 128
    coordinates: [  0.450000000000000,  0.798960111403249,  0.476065199235765 ]
    mass: 65.380000
    reduced_to: 121
  - symbol: Zn # 129
    coordinates: [  0.650000000000000,  0.798960111403249,  0.476065199235765 ]
    mass: 65.380000
    reduced_to: 121
  - symbol: Zn # 130
    coordinates: [  0.850000000000000,  0.798960111403249,  0.476065199235765 ]
    mass: 65.380000
    reduced_to: 121
  - symbol: Zn # 131
    coordinates: [  0.050000000000000,  0.298960111403249,  0.976065199235765 ]
    mass: 65.380000
    reduced_to: 121
  - symbol: Zn # 132
    coordinates: [  0.250000000000000,  0.298960111403249,  0.976065199235765 ]
    mass: 65.380000
    reduced_to: 121
  - symbol: Zn # 133
    coordinates: [  0.450000000000000,  0.298960111403249,  0.976065199235765 ]
    mass: 65.380000
    reduced_to: 121
  - symbol: Zn # 134
    coordinates: [  0.650000000000000,  0.298960111403249,  0.976065199235765 ]
    mass: 65.380000
    reduced_to: 121
  - symbol: Zn # 135
    coordinates: [  0.850000000000000,  0.298960111403249,  0.976065199235765 ]
    mass: 65.380000
    reduced_to: 121
  - symbol: Zn # 136
    coordinates: [  0.050000000000000,  0.798960111403249,  0.976065199235765 ]
    mass: 65.380000
    reduced_to: 121
  - symbol: Zn # 137
    coordinates: [  0.250000000000000,  0.798960111403249,  0.976065199235765 ]
    mass: 65.380000
    reduced_to: 121
  - symbol: Zn # 138
    coordinates: [  0.450000000000000,  0.798960111403249,  0.976065199235765 ]
    mass: 65.380000
    reduced_to: 121
  - symbol: Zn # 139
    coordinates: [  0.650000000000000,  0.798960111403249,  0.976065199235765 ]
    mass: 65.380000
    reduced_to: 121
  - symbol: Zn # 140
    coordinates: [  0.850000000000000,  0.798960111403249,  0.976065199235765 ]
    mass: 65.380000
    reduced_to: 121
  - symbol: Zn # 141
    coordinates: [  0.150000000000000,  0.201039888596751,  0.023934800764235 ]
    mass: 65.380000
    reduced_to: 141
  - symbol: Zn # 142
    coordinates: [  0.350000000000000,  0.201039888596751,  0.023934800764235 ]
    mass: 65.380000
    reduced_to: 141
  - symbol: Zn # 143
    coordinates: [  0.550000000000000,  0.201039888596751,  0.023934800764235 ]
    mass: 65.380000
    reduced_to: 141
  - symbol: Zn # 144
    coordinates: [  0.750000000000000,  0.201039888596751,  0.023934800764235 ]
    mass: 65.380000
    reduced_to: 141
  - symbol: Zn # 145
    coordinates: [  0.950000000000000,  0.201039888596751,  0.023934800764235 ]
    mass: 65.380000
    reduced_to: 141
  - symbol: Zn # 146
    coordinates: [  0.150000000000000,  0.701039888596751,  0.023934800764235 ]
    mass: 65.380000
    reduced_to: 141
  - symbol: Zn # 147
    coordinates: [  0.350000000000000,  0.701039888596751,  0.023934800764235 ]
    mass: 65.380000
    reduced_to: 141
  - symbol: Zn # 148
    coordinates: [  0.550000000000000,  0.701039888596751,  0.023934800764235 ]
    mass: 65.380000
    reduced_to: 141
  - symbol: Zn # 149
    coordinates: [  0.750000000000000,  0.701039888596751,  0.023934800764235 ]
    mass: 65.380000
    reduced_to: 141
  - symbol: Zn # 150
    coordinates: [  0.950000000000000,  0.701039888596751,  0.023934800764235 ]
    mass: 65.380000
    reduced_to: 141
  - symbol: Zn # 151
    coordinates: [  0.150000000000000,  0.201039888596751,  0.523934800764235 ]
    mass: 65.380000
    reduced_to: 141
  - symbol: Zn # 152
    coordinates: [  0.350000000000000,  0.201039888596751,  0.523934800764235 ]
    mass: 65.380000
    reduced_to: 141
  - symbol: Zn # 153
    coordinates: [  0.550000000000000,  0.201039888596751,  0.523934800764235 ]
    mass: 65.380000
    reduced_to: 141
  - symbol: Zn # 154
    coordinates: [  0.750000000000000,  0.201039888596751,  0.523934800764235 ]
    mass: 65.380000
    reduced_to: 141
  - symbol: Zn # 155
    coordinates: [  0.950000000000000,  0.201039888596751,  0.523934800764235 ]
    mass: 65.380000
    reduced_to: 141
  - symbol: Zn # 156
    coordinates: [  0.150000000000000,  0.701039888596751,  0.523934800764235 ]
    mass: 65.380000
    reduced_to: 141
  - symbol: Zn # 157
    coordinates: [  0.350000000000000,  0.701039888596751,  0.523934800764235 ]
    mass: 65.380000
    reduced_to: 141
  - symbol: Zn # 158
    coordinates: [  0.550000000000000,  0.701039888596751,  0.523934800764235 ]
    mass: 65.380000
    reduced_to: 141
  - symbol: Zn # 159
    coordinates: [  0.750000000000000,  0.701039888596751,  0.523934800764235 ]
    mass: 65.380000
    reduced_to: 141
  - symbol: Zn # 160
    coordinates: [  0.950000000000000,  0.701039888596751,  0.523934800764235 ]
    mass: 65.380000
    reduced_to: 141
  - symbol: Zn # 161
    coordinates: [  0.150000000000000,  0.222991315707748,  0.310276624897042 ]
    mass: 65.380000
    reduced_to: 161
  - symbol: Zn # 162
    coordinates: [  0.350000000000000,  0.222991315707748,  0.310276624897042 ]
    mass: 65.380000
    reduced_to: 161
  - symbol: Zn # 163
    coordinates: [  0.550000000000000,  0.222991315707748,  0.310276624897042 ]
    mass: 65.380000
    reduced_to: 161
  - symbol: Zn # 164
    coordinates: [  0.750000000000000,  0.222991315707748,  0.310276624897042 ]
    mass: 65.380000
    reduced_to: 161
  - symbol: Zn # 165
    coordinates: [  0.950000000000000,  0.222991315707748,  0.310276624897042 ]
    mass: 65.380000
    reduced_to: 161
  - symbol: Zn # 166
    coordinates: [  0.150000000000000,  0.722991315707748,  0.310276624897042 ]
    mass: 65.380000