phonopy:
  version: "2.21.0"
  frequency_unit_conversion_factor: 15.633302
  symmetry_tolerance: 1.00000e-04

space_group:
  type: "Fm-3m"
  number: 225
  Hall_symbol: "-F 4 2 3"

primitive_matrix:
- [  0.000000000000000,  0.500000000000000,  0.500000000000000 ]
- [  0.500000000000000,  0.000000000000000,  0.500000000000000 ]
- [  0.500000000000000,  0.500000000000000,  0.000000000000000 ]

supercell_matrix:
- [   4,   0,   0 ]
- [   0,   4,   0 ]
- [   0,   0,   4 ]

primitive_cell:
  lattice:
  - [    -0.000000000000000,     3.004288000000000,     3.004288000000001 ] # a
  - [     3.004288000000000,     0.000000000000000,     3.004288000000001 ] # b
  - [     3.004288000000000,     3.004288000000000,     0.000000000000000 ] # c
  points:
  - symbol: Ge # 1
    coordinates: [  0.000000000000000,  0.000000000000000,  0.000000000000000 ]
    mass: 72.640000
  - symbol: Te # 2
    coordinates: [  0.500000000000000,  0.500000000000000,  0.500000000000000 ]
    mass: 127.600000
  reciprocal_lattice: # without 2pi
  - [    -0.166428784457416,     0.166428784457416,     0.166428784457415 ] # a*
  - [     0.166428784457416,    -0.166428784457415,     0.166428784457415 ] # b*
  - [     0.166428784457416,     0.166428784457416,    -0.166428784457415 ] # c*

unit_cell:
  lattice:
  - [     6.008576000000001,     0.000000000000000,     0.000000000000000 ] # a
  - [    -0.000000000000000,     6.008576000000001,     0.000000000000000 ] # b
  - [     0.000000000000000,     0.000000000000000,     6.008576000000001 ] # c
  points:
  - symbol: Ge # 1
    coordinates: [  0.000000000000000,  0.000000000000000,  0.000000000000000 ]
    mass: 72.640000
    reduced_to: 1
  - symbol: Ge # 2
    coordinates: [  0.000000000000000,  0.500000000000000,  0.500000000000000 ]
    mass: 72.640000
    reduced_to: 1
  - symbol: Ge # 3
    coordinates: [  0.500000000000000,  0.000000000000000,  0.500000000000000 ]
    mass: 72.640000
    reduced_to: 1
  - symbol: Ge # 4
    coordinates: [  0.500000000000000,  0.500000000000000,  0.000000000000000 ]
    mass: 72.640000
    reduced_to: 1
  - symbol: Te # 5
    coordinates: [  0.500000000000000,  0.000000000000000,  0.000000000000000 ]
    mass: 127.600000
    reduced_to: 5
  - symbol: Te # 6
    coordinates: [  0.500000000000000,  0.500000000000000,  0.500000000000000 ]
    mass: 127.600000
    reduced_to: 5
  - symbol: Te # 7
    coordinates: [  0.000000000000000,  0.000000000000000,  0.500000000000000 ]
    mass: 127.600000
    reduced_to: 5
  - symbol: Te # 8
    coordinates: [  0.000000000000000,  0.500000000000000,  0.000000000000000 ]
    mass: 127.600000
    reduced_to: 5

supercell:
  lattice:
  - [    24.034304000000002,     0.000000000000000,     0.000000000000002 ] # a
  - [    -0.000000000000002,    24.034304000000002,     0.000000000000002 ] # b
  - [     0.000000000000000,     0.000000000000000,    24.034304000000002 ] # c
  points:
  - symbol: Ge # 1
    coordinates: [  0.000000000000000,  0.000000000000000,  0.000000000000000 ]
    mass: 72.640000
    reduced_to: 1
  - symbol: Ge # 2
    coordinates: [  0.250000000000000,  0.000000000000000,  0.000000000000000 ]
    mass: 72.640000
    reduced_to: 1
  - symbol: Ge # 3
    coordinates: [  0.500000000000000,  0.000000000000000,  0.000000000000000 ]
    mass: 72.640000
    reduced_to: 1
  - symbol: Ge # 4
    coordinates: [  0.750000000000000,  0.000000000000000,  0.000000000000000 ]
    mass: 72.640000
    reduced_to: 1
  - symbol: Ge # 5
    coordinates: [  0.000000000000000,  0.250000000000000,  0.000000000000000 ]
    mass: 72.640000
    reduced_to: 1
  - symbol: Ge # 6
    coordinates: [  0.250000000000000,  0.250000000000000,  0.000000000000000 ]
    mass: 72.640000
    reduced_to: 1
  - symbol: Ge # 7
    coordinates: [  0.500000000000000,  0.250000000000000,  0.000000000000000 ]
    mass: 72.640000
    reduced_to: 1
  - symbol: Ge # 8
    coordinates: [  0.750000000000000,  0.250000000000000,  0.000000000000000 ]
    mass: 72.640000
    reduced_to: 1
  - symbol: Ge # 9
    coordinates: [  0.000000000000000,  0.500000000000000,  0.000000000000000 ]
    mass: 72.640000
    reduced_to: 1
  - symbol: Ge # 10
    coordinates: [  0.250000000000000,  0.500000000000000,  0.000000000000000 ]
    mass: 72.640000
    reduced_to: 1
  - symbol: Ge # 11
    coordinates: [  0.500000000000000,  0.500000000000000,  0.000000000000000 ]
    mass: 72.640000
    reduced_to: 1
  - symbol: Ge # 12
    coordinates: [  0.750000000000000,  0.500000000000000,  0.000000000000000 ]
    mass: 72.640000
    reduced_to: 1
  - symbol: Ge # 13
    coordinates: [  0.000000000000000,  0.750000000000000,  0.000000000000000 ]
    mass: 72.640000
    reduced_to: 1
  - symbol: Ge # 14
    coordinates: [  0.250000000000000,  0.750000000000000,  0.000000000000000 ]
    mass: 72.640000
    reduced_to: 1
  - symbol: Ge # 15
    coordinates: [  0.500000000000000,  0.750000000000000,  0.000000000000000 ]
    mass: 72.640000
    reduced_to: 1
  - symbol: Ge # 16
    coordinates: [  0.750000000000000,  0.750000000000000,  0.000000000000000 ]
    mass: 72.640000
    reduced_to: 1
  - symbol: Ge # 17
    coordinates: [  0.000000000000000,  0.000000000000000,  0.250000000000000 ]
    mass: 72.640000
    reduced_to: 1
  - symbol: Ge # 18
    coordinates: [  0.250000000000000,  0.000000000000000,  0.250000000000000 ]
    mass: 72.640000
    reduced_to: 1
  - symbol: Ge # 19
    coordinates: [  0.500000000000000,  0.000000000000000,  0.250000000000000 ]
    mass: 72.640000
    reduced_to: 1
  - symbol: Ge # 20
    coordinates: [  0.750000000000000,  0.000000000000000,  0.250000000000000 ]
    mass: 72.640000
    reduced_to: 1
  - symbol: Ge # 21
    coordinates: [  0.000000000000000,  0.250000000000000,  0.250000000000000 ]
    mass: 72.640000
    reduced_to: 1
  - symbol: Ge # 22
    coordinates: [  0.250000000000000,  0.250000000000000,  0.250000000000000 ]
    mass: 72.640000
    reduced_to: 1
  - symbol: Ge # 23
    coordinates: [  0.500000000000000,  0.250000000000000,  0.250000000000000 ]
    mass: 72.640000
    reduced_to: 1
  - symbol: Ge # 24
    coordinates: [  0.750000000000000,  0.250000000000000,  0.250000000000000 ]
    mass: 72.640000
    reduced_to: 1
  - symbol: Ge # 25
    coordinates: [  0.000000000000000,  0.500000000000000,  0.250000000000000 ]
    mass: 72.640000
    reduced_to: 1
  - symbol: Ge # 26
    coordinates: [  0.250000000000000,  0.500000000000000,  0.250000000000000 ]
    mass: 72.640000
    reduced_to: 1
  - symbol: Ge # 27
    coordinates: [  0.500000000000000,  0.500000000000000,  0.250000000000000 ]
    mass: 72.640000
    reduced_to: 1
  - symbol: Ge # 28
    coordinates: [  0.750000000000000,  0.500000000000000,  0.250000000000000 ]
    mass: 72.640000
    reduced_to: 1
  - symbol: Ge # 29
    coordinates: [  0.000000000000000,  0.750000000000000,  0.250000000000000 ]
    mass: 72.640000
    reduced_to: 1
  - symbol: Ge # 30
    coordinates: [  0.250000000000000,  0.750000000000000,  0.250000000000000 ]
    mass: 72.640000
    reduced_to: 1
  - symbol: Ge # 31
    coordinates: [  0.500000000000000,  0.750000000000000,  0.250000000000000 ]
    mass: 72.640000
    reduced_to: 1
  - symbol: Ge # 32
    coordinates: [  0.750000000000000,  0.750000000000000,  0.250000000000000 ]
    mass: 72.640000
    reduced_to: 1
  - symbol: Ge # 33
    coordinates: [  0.000000000000000,  0.000000000000000,  0.500000000000000 ]
    mass: 72.640000
    reduced_to: 1
  - symbol: Ge # 34
    coordinates: [  0.250000000000000,  0.000000000000000,  0.500000000000000 ]
    mass: 72.640000
    reduced_to: 1
  - symbol: Ge # 35
    coordinates: [  0.500000000000000,  0.000000000000000,  0.500000000000000 ]
    mass: 72.640000
    reduced_to: 1
  - symbol: Ge # 36
    coordinates: [  0.750000000000000,  0.000000000000000,  0.500000000000000 ]
    mass: 72.640000
    reduced_to: 1
  - symbol: Ge # 37
    coordinates: [  0.000000000000000,  0.250000000000000,  0.500000000000000 ]
    mass: 72.640000
    reduced_to: 1
  - symbol: Ge # 38
    coordinates: [  0.250000000000000,  0.250000000000000,  0.500000000000000 ]
    mass: 72.640000
    reduced_to: 1
  - symbol: Ge # 39
    coordinates: [  0.500000000000000,  0.250000000000000,  0.500000000000000 ]
    mass: 72.640000
    reduced_to: 1
  - symbol: Ge # 40
    coordinates: [  0.750000000000000,  0.250000000000000,  0.500000000000000 ]
    mass: 72.640000
    reduced_to: 1
  - symbol: Ge # 41
    coordinates: [  0.000000000000000,  0.500000000000000,  0.500000000000000 ]
    mass: 72.640000
    reduced_to: 1
  - symbol: Ge # 42
    coordinates: [  0.250000000000000,  0.500000000000000,  0.500000000000000 ]
    mass: 72.640000
    reduced_to: 1
  - symbol: Ge # 43
    coordinates: [  0.500000000000000,  0.500000000000000,  0.500000000000000 ]
    mass: 72.640000
    reduced_to: 1
  - symbol: Ge # 44
    coordinates: [  0.750000000000000,  0.500000000000000,  0.500000000000000 ]
    mass: 72.640000
    reduced_to: 1
  - symbol: Ge # 45
    coordinates: [  0.000000000000000,  0.750000000000000,  0.500000000000000 ]
    mass: 72.640000
    reduced_to: 1
  - symbol: Ge # 46
    coordinates: [  0.250000000000000,  0.750000000000000,  0.500000000000000 ]
    mass: 72.640000
    reduced_to: 1
  - symbol: Ge # 47
    coordinates: [  0.500000000000000,  0.750000000000000,  0.500000000000000 ]
    mass: 72.640000
    reduced_to: 1
  - symbol: Ge # 48
    coordinates: [  0.750000000000000,  0.750000000000000,  0.500000000000000 ]
    mass: 72.640000
    reduced_to: 1
  - symbol: Ge # 49
    coordinates: [  0.000000000000000,  0.000000000000000,  0.750000000000000 ]
    mass: 72.640000
    reduced_to: 1
  - symbol: Ge # 50
    coordinates: [  0.250000000000000,  0.000000000000000,  0.750000000000000 ]
    mass: 72.640000
    reduced_to: 1
  - symbol: Ge # 51
    coordinates: [  0.500000000000000,  0.000000000000000,  0.750000000000000 ]
    mass: 72.640000
    reduced_to: 1
  - symbol: Ge # 52
    coordinates: [  0.750000000000000,  0.000000000000000,  0.750000000000000 ]
    mass: 72.640000
    reduced_to: 1
  - symbol: Ge # 53
    coordinates: [  0.000000000000000,  0.250000000000000,  0.750000000000000 ]
    mass: 72.640000
    reduced_to: 1
  - symbol: Ge # 54
    coordinates: [  0.250000000000000,  0.250000000000000,  0.750000000000000 ]
    mass: 72.640000
    reduced_to: 1
  - symbol: Ge # 55
    coordinates: [  0.500000000000000,  0.250000000000000,  0.750000000000000 ]
    mass: 72.640000
    reduced_to: 1
  - symbol: Ge # 56
    coordinates: [  0.750000000000000,  0.250000000000000,  0.750000000000000 ]
    mass: 72.640000
    reduced_to: 1
  - symbol: Ge # 57
    coordinates: [  0.000000000000000,  0.500000000000000,  0.750000000000000 ]
    mass: 72.640000
    reduced_to: 1
  - symbol: Ge # 58
    coordinates: [  0.250000000000000,  0.500000000000000,  0.750000000000000 ]
    mass: 72.640000
    reduced_to: 1
  - symbol: Ge # 59
    coordinates: [  0.500000000000000,  0.500000000000000,  0.750000000000000 ]
    mass: 72.640000
    reduced_to: 1
  - symbol: Ge # 60
    coordinates: [  0.750000000000000,  0.500000000000000,  0.750000000000000 ]
    mass: 72.640000
    reduced_to: 1
  - symbol: Ge # 61
    coordinates: [  0.000000000000000,  0.750000000000000,  0.750000000000000 ]
    mass: 72.640000
    reduced_to: 1
  - symbol: Ge # 62
    coordinates: [  0.250000000000000,  0.750000000000000,  0.750000000000000 ]
    mass: 72.640000
    reduced_to: 1
  - symbol: Ge # 63
    coordinates: [  0.500000000000000,  0.750000000000000,  0.750000000000000 ]
    mass: 72.640000
    reduced_to: 1
  - symbol: Ge # 64
    coordinates: [  0.750000000000000,  0.750000000000000,  0.750000000000000 ]
    mass: 72.640000
    reduced_to: 1
  - symbol: Ge # 65
    coordinates: [  0.000000000000000,  0.125000000000000,  0.125000000000000 ]
    mass: 72.640000
    reduced_to: 1
  - symbol: Ge # 66
    coordinates: [  0.250000000000000,  0.125000000000000,  0.125000000000000 ]
    mass: 72.640000
    reduced_to: 1
  - symbol: Ge # 67
    coordinates: [  0.500000000000000,  0.125000000000000,  0.125000000000000 ]
    mass: 72.640000
    reduced_to: 1
  - symbol: Ge # 68
    coordinates: [  0.750000000000000,  0.125000000000000,  0.125000000000000 ]
    mass: 72.640000
    reduced_to: 1
  - symbol: Ge # 69
    coordinates: [  0.000000000000000,  0.375000000000000,  0.125000000000000 ]
    mass: 72.640000
    reduced_to: 1
  - symbol: Ge # 70
    coordinates: [  0.250000000000000,  0.375000000000000,  0.125000000000000 ]
    mass: 72.640000
    reduced_to: 1
  - symbol: Ge # 71
    coordinates: [  0.500000000000000,  0.375000000000000,  0.125000000000000 ]
    mass: 72.640000
    reduced_to: 1
  - symbol: Ge # 72
    coordinates: [  0.750000000000000,  0.375000000000000,  0.125000000000000 ]
    mass: 72.640000
    reduced_to: 1
  - symbol: Ge # 73
    coordinates: [  0.000000000000000,  0.625000000000000,  0.125000000000000 ]
    mass: 72.640000
    reduced_to: 1
  - symbol: Ge # 74
    coordinates: [  0.250000000000000,  0.625000000000000,  0.125000000000000 ]
    mass: 72.640000
    reduced_to: 1
  - symbol: Ge # 75
    coordinates: [  0.500000000000000,  0.625000000000000,  0.125000000000000 ]
    mass: 72.640000
    reduced_to: 1
  - symbol: Ge # 76
    coordinates: [  0.750000000000000,  0.625000000000000,  0.125000000000000 ]
    mass: 72.640000
    reduced_to: 1
  - symbol: Ge # 77
    coordinates: [  0.000000000000000,  0.875000000000000,  0.125000000000000 ]
    mass: 72.640000
    reduced_to: 1
  - symbol: Ge # 78
    coordinates: [  0.250000000000000,  0.875000000000000,  0.125000000000000 ]
    mass: 72.640000
    reduced_to: 1
  - symbol: Ge # 79
    coordinates: [  0.500000000000000,  0.875000000000000,  0.125000000000000 ]
    mass: 72.640000
    reduced_to: 1
  - symbol: Ge # 80
    coordinates: [  0.750000000000000,  0.875000000000000,  0.125000000000000 ]
    mass: 72.640000
    reduced_to: 1
  - symbol: Ge # 81
    coordinates: [  0.000000000000000,  0.125000000000000,  0.375000000000000 ]
    mass: 72.640000
    reduced_to: 1
  - symbol: Ge # 82
    coordinates: [  0.250000000000000,  0.125000000000000,  0.375000000000000 ]
    mass: 72.640000
    reduced_to: 1
  - symbol: Ge # 83
    coordinates: [  0.500000000000000,  0.125000000000000,  0.375000000000000 ]
    mass: 72.640000
    reduced_to: 1
  - symbol: Ge # 84
    coordinates: [  0.750000000000000,  0.125000000000000,  0.375000000000000 ]
    mass: 72.640000
    reduced_to: 1
  - symbol: Ge # 85
    coordinates: [  0.000000000000000,  0.375000000000000,  0.375000000000000 ]
    mass: 72.640000
    reduced_to: 1
  - symbol: Ge # 86
    coordinates: [  0.250000000000000,  0.375000000000000,  0.375000000000000 ]
    mass: 72.640000
    reduced_to: 1
  - symbol: Ge # 87
    coordinates: [  0.500000000000000,  0.375000000000000,  0.375000000000000 ]
    mass: 72.640000
    reduced_to: 1
  - symbol: Ge # 88
    coordinates: [  0.750000000000000,  0.375000000000000,  0.375000000000000 ]
    mass: 72.640000
    reduced_to: 1
  - symbol: Ge # 89
    coordinates: [  0.000000000000000,  0.625000000000000,  0.375000000000000 ]
    mass: 72.640000
    reduced_to: 1
  - symbol: Ge # 90
    coordinates: [  0.250000000000000,  0.625000000000000,  0.375000000000000 ]
    mass: 72.640000
    reduced_to: 1
  - symbol: Ge # 91
    coordinates: [  0.500000000000000,  0.625000000000000,  0.375000000000000 ]
    mass: 72.640000
    reduced_to: 1
  - symbol: Ge # 92
    coordinates: [  0.750000000000000,  0.625000000000000,  0.375000000000000 ]
    mass: 72.640000
    reduced_to: 1
  - symbol: Ge # 93
    coordinates: [  0.000000000000000,  0.875000000000000,  0.375000000000000 ]
    mass: 72.640000
    reduced_to: 1
  - symbol: Ge # 94
    coordinates: [  0.250000000000000,  0.875000000000000,  0.375000000000000 ]
    mass: 72.640000
    reduced_to: 1
  - symbol: Ge # 95
    coordinates: [  0.500000000000000,  0.875000000000000,  0.375000000000000 ]
    mass: 72.640000
    reduced_to: 1
  - symbol: Ge # 96
    coordinates: [  0.750000000000000,  0.875000000000000,  0.375000000000000 ]
    mass: 72.640000
    reduced_to: 1
  - symbol: Ge # 97
    coordinates: [  0.000000000000000,  0.125000000000000,  0.625000000000000 ]
    mass: 72.640000
    reduced_to: 1
  - symbol: Ge # 98
    coordinates: [  0.250000000000000,  0.125000000000000,  0.625000000000000 ]
    mass: 72.640000
    reduced_to: 1
  - symbol: Ge # 99
    coordinates: [  0.500000000000000,  0.125000000000000,  0.625000000000000 ]
    mass: 72.640000
    reduced_to: 1
  - symbol: Ge # 100
    coordinates: [  0.750000000000000,  0.125000000000000,  0.625000000000000 ]
    mass: 72.640000
    reduced_to: 1
  - symbol: Ge # 101
    coordinates: [  0.000000000000000,  0.375000000000000,  0.625000000000000 ]
    mass: 72.640000
    reduced_to: 1
  - symbol: Ge # 102
    coordinates: [  0.250000000000000,  0.375000000000000,  0.625000000000000 ]
    mass: 72.640000
    reduced_to: 1
  - symbol: Ge # 103
    coordinates: [  0.500000000000000,  0.375000000000000,  0.625000000000000 ]
    mass: 72.640000
    reduced_to: 1
  - symbol: Ge # 104
    coordinates: [  0.750000000000000,  0.375000000000000,  0.625000000000000 ]
    mass: 72.640000
    reduced_to: 1
  - symbol: Ge # 105
    coordinates: [  0.000000000000000,  0.625000000000000,  0.625000000000000 ]
    mass: 72.640000
    reduced_to: 1
  - symbol: Ge # 106
    coordinates: [  0.250000000000000,  0.625000000000000,  0.625000000000000 ]
    mass: 72.640000
    reduced_to: 1
  - symbol: Ge # 107
    coordinates: [  0.500000000000000,  0.625000000000000,  0.625000000000000 ]
    mass: 72.640000
    reduced_to: 1
  - symbol: Ge # 108
    coordinates: [  0.750000000000000,  0.625000000000000,  0.625000000000000 ]
    mass: 72.640000
    reduced_to: 1
  - symbol: Ge # 109
    coordinates: [  0.000000000000000,  0.875000000000000,  0.625000000000000 ]
    mass: 72.640000
    reduced_to: 1
  - symbol: Ge # 110
    coordinates: [  0.250000000000000,  0.875000000000000,  0.625000000000000 ]
    mass: 72.640000
    reduced_to: 1
  - symbol: Ge # 111
    coordinates: [  0.500000000000000,  0.875000000000000,  0.625000000000000 ]
    mass: 72.640000
    reduced_to: 1
  - symbol: Ge # 112
    coordinates: [  0.750000000000000,  0.875000000000000,  0.625000000000000 ]
    mass: 72.640000
    reduced_to: 1
  - symbol: Ge # 113
    coordinates: [  0.000000000000000,  0.125000000000000,  0.875000000000000 ]
    mass: 72.640000
    reduced_to: 1
  - symbol: Ge # 114
    coordinates: [  0.250000000000000,  0.125000000000000,  0.875000000000000 ]
    mass: 72.640000
    reduced_to: 1
  - symbol: Ge # 115
    coordinates: [  0.500000000000000,  0.125000000000000,  0.875000000000000 ]
    mass: 72.640000
    reduced_to: 1
  - symbol: Ge # 116
    coordinates: [  0.750000000000000,  0.125000000000000,  0.875000000000000 ]
    mass: 72.640000
    reduced_to: 1
  - symbol: Ge # 117
    coordinates: [  0.000000000000000,  0.375000000000000,  0.875000000000000 ]
    mass: 72.640000
    reduced_to: 1
  - symbol: Ge # 118
    coordinates: [  0.250000000000000,  0.375000000000000,  0.875000000000000 ]
    mass: 72.640000
    reduced_to: 1
  - symbol: Ge # 119
    coordinates: [  0.500000000000000,  0.375000000000000,  0.875000000000000 ]
    mass: 72.640000
    reduced_to: 1
  - symbol: Ge # 120
    coordinates: [  0.750000000000000,  0.375000000000000,  0.875000000000000 ]
    mass: 72.640000
    reduced_to: 1
  - symbol: Ge # 121
    coordinates: [  0.000000000000000,  0.625000000000000,  0.875000000000000 ]
    mass: 72.640000
    reduced_to: 1
  - symbol: Ge # 122
    coordinates: [  0.250000000000000,  0.625000000000000,  0.875000000000000 ]
    mass: 72.640000
    reduced_to: 1
  - symbol: Ge # 123
    coordinates: [  0.500000000000000,  0.625000000000000,  0.875000000000000 ]
    mass: 72.640000
    reduced_to: 1
  - symbol: Ge # 124
    coordinates: [  0.750000000000000,  0.625000000000000,  0.875000000000000 ]
    mass: 72.640000
    reduced_to: 1
  - symbol: Ge # 125
    coordinates: [  0.000000000000000,  0.875000000000000,  0.875000000000000 ]
    mass: 72.640000
    reduced_to: 1
  - symbol: Ge # 126
    coordinates: [  0.250000000000000,  0.875000000000000,  0.875000000000000 ]
    mass: 72.640000
    reduced_to: 1
  - symbol: Ge # 127
    coordinates: [  0.500000000000000,  0.875000000000000,  0.875000000000000 ]
    mass: 72.640000
    reduced_to: 1
  - symbol: Ge # 128
    coordinates: [  0.750000000000000,  0.875000000000000,  0.875000000000000 ]
    mass: 72.640000
    reduced_to: 1
  - symbol: Ge # 129
    coordinates: [  0.125000000000000,  0.000000000000000,  0.125000000000000 ]
    mass: 72.640000
    reduced_to: 1
  - symbol: Ge # 130
    coordinates: [  0.375000000000000,  0.000000000000000,  0.125000000000000 ]
    mass: 72.640000
    reduced_to: 1
  - symbol: Ge # 131
    coordinates: [  0.625000000000000,  0.000000000000000,  0.125000000000000 ]
    mass: 72.640000
    reduced_to: 1
  - symbol: Ge # 132
    coordinates: [  0.875000000000000,  0.000000000000000,  0.125000000000000 ]
    mass: 72.640000
    reduced_to: 1
  - symbol: Ge # 133
    coordinates: [  0.125000000000000,  0.250000000000000,  0.125000000000000 ]
    mass: 72.640000
    reduced_to: 1
  - symbol: Ge # 134
    coordinates: [  0.375000000000000,  0.250000000000000,  0.125000000000000 ]
    mass: 72.640000
    reduced_to: 1
  - symbol: Ge # 135
    coordinates: [  0.625000000000000,  0.250000000000000,  0.125000000000000 ]
    mass: 72.640000
    reduced_to: 1
  - symbol: Ge # 136
    coordinates: [  0.875000000000000,  0.250000000000000,  0.125000000000000 ]
    mass: 72.640000
    reduced_to: 1
  - symbol: Ge # 137
    coordinates: [  0.125000000000000,  0.500000000000000,  0.125000000000000 ]
    mass: 72.640000
    reduced_to: 1
  - symbol: Ge # 138
    coordinates: [  0.375000000000000,  0.500000000000000,  0.125000000000000 ]
    mass: 72.640000
    reduced_to: 1
  - symbol: Ge # 139
    coordinates: [  0.625000000000000,  0.500000000000000,  0.125000000000000 ]
    mass: 72.640000
    reduced_to: 1
  - symbol: Ge # 140
    coordinates: [  0.875000000000000,  0.500000000000000,  0.125000000000000 ]
    mass: 72.640000
    reduced_to: 1
  - symbol: Ge # 141
    coordinates: [  0.125000000000000,  0.750000000000000,  0.125000000000000 ]
    mass: 72.640000
    reduced_to: 1
  - symbol: Ge # 142
    coordinates: [  0.375000000000000,  0.750000000000000,  0.125000000000000 ]
    mass: 72.640000
    reduced_to: 1
  - symbol: Ge # 143
    coordinates: [  0.625000000000000,  0.750000000000000,  0.125000000000000 ]
    mass: 72.640000
    reduced_to: 1
  - symbol: Ge # 144
    coordinates: [  0.875000000000000,  0.750000000000000,  0.125000000000000 ]
    mass: 72.640000
    reduced_to: 1
  - symbol: Ge # 145
    coordinates: [  0.125000000000000,  0.000000000000000,  0.375000000000000 ]
    mass: 72.640000
    reduced_to: 1
  - symbol: Ge # 146
    coordinates: [  0.375000000000000,  0.000000000000000,  0.375000000000000 ]
    mass: 72.640000
    reduced_to: 1
  - symbol: Ge # 147
    coordinates: [  0.625000000000000,  0.000000000000000,  0.375000000000000 ]
    mass: 72.640000
    reduced_to: 1
  - symbol: Ge # 148
    coordinates: [  0.875000000000000,  0.000000000000000,  0.375000000000000 ]
    mass: 72.640000
    reduced_to: 1
  - symbol: Ge # 149
    coordinates: [  0.125000000000000,  0.250000000000000,  0.375000000000000 ]
    mass: 72.640000
    reduced_to: 1
  - symbol: Ge # 150
    coordinates: [  0.375000000000000,  0.250000000000000,  0.375000000000000 ]
    mass: 72.640000
    reduced_to: 1
  - symbol: Ge # 151
    coordinates: [  0.625000000000000,  0.250000000000000,  0.375000000000000 ]
    mass: 72.640000
    reduced_to: 1
  - symbol: Ge # 152
    coordinates: [  0.875000000000000,  0.250000000000000,  0.375000000000000 ]
    mass: 72.640000
    reduced_to: 1
  - symbol: Ge # 153
    coordinates: [  0.125000000000000,  0.500000000000000,  0.375000000000000 ]
    mass: 72.640000
    reduced_to: 1
  - symbol: Ge # 154
    coordinates: [  0.375000000000000,  0.500000000000000,  0.375000000000000 ]
    mass: 72.640000
    reduced_to: 1
  - symbol: Ge # 155
    coordinates: [  0.625000000000000,  0.500000000000000,  0.375000000000000 ]
    mass: 72.640000
    reduced_to: 1
  - symbol: Ge # 156
    coordinates: [  0.875000000000000,  0.500000000000000,  0.375000000000000 ]
    mass: 72.640000
    reduced_to: 1
  - symbol: Ge # 157
    coordinates: [  0.125000000000000,  0.750000000000000,  0.375000000000000 ]
    mass: 72.640000
    reduced_to: 1
  - symbol: Ge # 158
    coordinates: [  0.375000000000000,  0.750000000000000,  0.375000000000000 ]
    mass: 72.640000
    reduced_to: 1
  - symbol: Ge # 159
    coordinates: [  0.625000000000000,  0.750000000000000,  0.375000000000000 ]
    mass: 72.640000
    reduced_to: 1
  - symbol: Ge # 160
    coordinates: [  0.875000000000000,  0.750000000000000,  0.375000000000000 ]
    mass: 72.640000
    reduced_to: 1
  - symbol: Ge # 161
    coordinates: [  0.125000000000000,  0.000000000000000,  0.625000000000000 ]
    mass: 72.640000
    reduced_to: 1
  - symbol: Ge # 162
    coordinates: [  0.375000000000000,  0.000000000000000,  0.625000000000000 ]
    mass: 72.640000
    reduced_to: 1
  - symbol: Ge # 163
    coordinates: [  0.625000000000000,  0.000000000000000,  0.625000000000000 ]
    mass: 72.640000
    reduced_to: 1
  - symbol: Ge # 164
    coordinates: [  0.875000000000000,  0.000000000000000,  0.625000000000000 ]
    mass: 72.640000
    reduced_to: 1
  - symbol: Ge # 165
    coordinates: [  0.125000000000000,  0.250000000000000,  0.625000000000000 ]
    mass: 72.640000
    reduced_to: 1
  - symbol: Ge # 166
    coordinates: [  0.375000000000000,  0.250000000000000,  0.625000000000000 ]
    mass: 72.640000
    reduced_to: 1
  - symbol: Ge # 167
    coordinates: [  0.625000000000000,  0.250000000000000,  0.625000000000000 ]
    mass: 72.640000
    reduced_to: 1
  - symbol: Ge # 168
    coordinates: [  0.875000000000000,  0.250000000000000,  0.625000000000000 ]
    mass: 72.640000
    reduced_to: 1
  - symbol: Ge # 169
    coordinates: [  0.125000000000000,  0.500000000000000,  0.625000000000000 ]
    mass: 72.640000
    reduced_to: 1
  - symbol: Ge # 170
    coordinates: [  0.375000000000000,  0.500000000000000,  0.625000000000000 ]
    mass: 72.640000
    reduced_to: 1
  - symbol: Ge # 171
    coordinates: [  0.625000000000000,  0.500000000000000,  0.625000000000000 ]
    mass: 72.640000
    reduced_to: 1
  - symbol: Ge # 172
    coordinates: [  0.875000000000000,  0.500000000000000,  0.625000000000000 ]
    mass: 72.640000
    reduced_to: 1
  - symbol: Ge # 173
    coordinates: [  0.125000000000000,  0.750000000000000,  0.625000000000000 ]
    mass: 72.640000
    reduced_to: 1
  - symbol: Ge # 174
    coordinates: [  0.375000000000000,  0.750000000000000,  0.625000000000000 ]
    mass: 72.640000
    reduced_to: 1
  - symbol: Ge # 175
    coordinates: [  0.625000000000000,  0.750000000000000,  0.625000000000000 ]
    mass: 72.640000
    reduced_to: 1
  - symbol: Ge # 176
    coordinates: [  0.875000000000000,  0.750000000000000,  0.625000000000000 ]
    mass: 72.640000
    reduced_to: 1
  - symbol: Ge # 177
    coordinates: [  0.125000000000000,  0.000000000000000,  0.875000000000000 ]
    mass: 72.640000
    reduced_to: 1
  - symbol: Ge # 178
    coordinates: [  0.375000000000000,  0.000000000000000,  0.875000000000000 ]
    mass: 72.640000
    reduced_to: 1
  - symbol: Ge # 179
    coordinates: [  0.625000000000000,  0.000000000000000,  0.875000000000000 ]
    mass: 72.640000
    reduced_to: 1
  - symbol: Ge # 180
    coordinates: [  0.875000000000000,  0.000000000000000,  0.875000000000000 ]
    mass: 72.640000
    reduced_to: 1
  - symbol: Ge # 181
    coordinates: [  0.125000000000000,  0.250000000000000,  0.875000000000000 ]
    mass: 72.640000
    reduced_to: 1
  - symbol: Ge # 182
    coordinates: [  0.375000000000000,  0.250000000000000,  0.875000000000000 ]
    mass: 72.640000
    reduced_to: 1
  - symbol: Ge # 183
    coordinates: [  0.625000000000000,  0.250000000000000,  0.875000000000000 ]
    mass: 72.640000
    reduced_to: 1
  - symbol: Ge # 184
    coordinates: [  0.875000000000000,  0.250000000000000,  0.875000000000000 ]
    mass: 72.640000
    reduced_to: 1
  - symbol: Ge # 185
    coordinates: [  0.125000000000000,  0.500000000000000,  0.875000000000000 ]
    mass: 72.640000
    reduced_to: 1
  - symbol: Ge # 186
    coordinates: [  0.375000000000000,  0.500000000000000,  0.875000000000000 ]
    mass: 72.640000
    reduced_to: 1
  - symbol: Ge # 187
    coordinates: [  0.625000000000000,  0.500000000000000,  0.875000000000000 ]
    mass: 72.640000
    reduced_to: 1
  - symbol: Ge # 188
    coordinates: [  0.875000000000000,  0.500000000000000,  0.875000000000000 ]
    mass: 72.640000
    reduced_to: 1
  - symbol: Ge # 189
    coordinates: [  0.125000000000000,  0.750000000000000,  0.875000000000000 ]
    mass: 72.640000
    reduced_to: 1
  - symbol: Ge # 190
    coordinates: [  0.375000000000000,  0.750000000000000,  0.875000000000000 ]
    mass: 72.640000
    reduced_to: 1
  - symbol: Ge # 191
    coordinates: [  0.625000000000000,  0.750000000000000,  0.875000000000000 ]
    mass: 72.640000
    reduced_to: 1
  - symbol: Ge # 192
    coordinates: [  0.875000000000000,  0.750000000000000,  0.875000000000000 ]
    mass: 72.640000
    reduced_to: 1
  - symbol: Ge # 193
    coordinates: [  0.125000000000000,  0.125000000000000,  0.000000000000000 ]
    mass: 72.640000
    reduced_to: 1
  - symbol: Ge # 194
    coordinates: [  0.375000000000000,  0.125000000000000,  0.000000000000000 ]
    mass: 72.640000
    reduced_to: 1
  - symbol: Ge # 195
    coordinates: [  0.625000000000000,  0.125000000000000,  0.000000000000000 ]
    mass: 72.640000
    reduced_to: 1
  - symbol: Ge # 196