phonopy:
  version: "2.21.0"
  frequency_unit_conversion_factor: 15.633302
  symmetry_tolerance: 1.00000e-04

space_group:
  type: "Pnma"
  number: 62
  Hall_symbol: "-P 2ac 2n"

primitive_matrix:
- [  0.000000000000000, -1.000000000000000,  0.000000000000000 ]
- [  1.000000000000000,  0.000000000000000,  0.000000000000000 ]
- [ -0.000000000000000,  0.000000000000000,  1.000000000000000 ]

supercell_matrix:
- [   5,   0,   0 ]
- [   0,   2,   0 ]
- [   0,   0,   2 ]

primitive_cell:
  lattice:
  - [    -0.000000000000001,    10.145934747709484,     0.000000000000001 ] # a
  - [    -4.468642325785881,     0.000000000000000,    -0.000000000000000 ] # b
  - [     0.000000000000000,     0.000000000000000,    11.538956540812949 ] # c
  points:
  - symbol: Ba # 1
    coordinates: [  0.755864864195943,  0.250000000000000,  0.177650259301689 ]
    mass: 137.327000
  - symbol: Ba # 2
    coordinates: [  0.244135135804057,  0.750000000000000,  0.822349740698311 ]
    mass: 137.327000
  - symbol: Ba # 3
    coordinates: [  0.255864864195943,  0.250000000000000,  0.322349740698311 ]
    mass: 137.327000
  - symbol: Ba # 4
    coordinates: [  0.744135135804057,  0.750000000000000,  0.677650259301688 ]
    mass: 137.327000
  - symbol: Cu # 5
    coordinates: [  0.076303282229454,  0.750000000000000,  0.543592719966867 ]
    mass: 63.546000
  - symbol: Cu # 6
    coordinates: [  0.923696717770546,  0.250000000000000,  0.456407280033133 ]
    mass: 63.546000
  - symbol: Cu # 7
    coordinates: [  0.423696717770546,  0.250000000000000,  0.043592719966867 ]
    mass: 63.546000
  - symbol: Cu # 8
    coordinates: [  0.576303282229454,  0.750000000000000,  0.956407280033133 ]
    mass: 63.546000
  - symbol: Cu # 9
    coordinates: [  0.943941933333229,  0.250000000000000,  0.885959689360097 ]
    mass: 63.546000
  - symbol: Cu # 10
    coordinates: [  0.056058066666771,  0.750000000000000,  0.114040310639902 ]
    mass: 63.546000
  - symbol: Cu # 11
    coordinates: [  0.443941933333229,  0.250000000000000,  0.614040310639902 ]
    mass: 63.546000
  - symbol: Cu # 12
    coordinates: [  0.556058066666771,  0.750000000000000,  0.385959689360098 ]
    mass: 63.546000
  - symbol: Te # 13
    coordinates: [  0.840628153418677,  0.750000000000000,  0.962308012682719 ]
    mass: 127.600000
  - symbol: Te # 14
    coordinates: [  0.159371846581323,  0.250000000000000,  0.037691987317281 ]
    mass: 127.600000
  - symbol: Te # 15
    coordinates: [  0.659371846581323,  0.250000000000000,  0.462308012682719 ]
    mass: 127.600000
  - symbol: Te # 16
    coordinates: [  0.340628153418677,  0.750000000000000,  0.537691987317281 ]
    mass: 127.600000
  - symbol: Te # 17
    coordinates: [  0.525169279884357,  0.250000000000000,  0.830792447215930 ]
    mass: 127.600000
  - symbol: Te # 18
    coordinates: [  0.474830720115643,  0.750000000000000,  0.169207552784070 ]
    mass: 127.600000
  - symbol: Te # 19
    coordinates: [  0.025169279884357,  0.250000000000000,  0.669207552784070 ]
    mass: 127.600000
  - symbol: Te # 20
    coordinates: [  0.974830720115643,  0.750000000000000,  0.330792447215930 ]
    mass: 127.600000
  reciprocal_lattice: # without 2pi
  - [    -0.000000000000000,     0.098561643147346,     0.000000000000000 ] # a*
  - [    -0.223781615778375,    -0.000000000000000,     0.000000000000000 ] # b*
  - [    -0.000000000000000,    -0.000000000000000,     0.086662948808502 ] # c*

unit_cell:
  lattice:
  - [     4.468642325785881,     0.000000000000000,     0.000000000000000 ] # a
  - [    -0.000000000000001,    10.145934747709484,     0.000000000000001 ] # b
  - [     0.000000000000000,     0.000000000000000,    11.538956540812947 ] # c
  points:
  - symbol: Ba # 1
    coordinates: [  0.750000000000000,  0.755864864195943,  0.177650259301689 ]
    mass: 137.327000
    reduced_to: 1
  - symbol: Ba # 2
    coordinates: [  0.250000000000000,  0.244135135804057,  0.822349740698311 ]
    mass: 137.327000
    reduced_to: 2
  - symbol: Ba # 3
    coordinates: [  0.750000000000000,  0.255864864195943,  0.322349740698311 ]
    mass: 137.327000
    reduced_to: 3
  - symbol: Ba # 4
    coordinates: [  0.250000000000000,  0.744135135804057,  0.677650259301689 ]
    mass: 137.327000
    reduced_to: 4
  - symbol: Cu # 5
    coordinates: [  0.250000000000000,  0.076303282229454,  0.543592719966867 ]
    mass: 63.546000
    reduced_to: 5
  - symbol: Cu # 6
    coordinates: [  0.750000000000000,  0.923696717770546,  0.456407280033133 ]
    mass: 63.546000
    reduced_to: 6
  - symbol: Cu # 7
    coordinates: [  0.750000000000000,  0.423696717770546,  0.043592719966867 ]
    mass: 63.546000
    reduced_to: 7
  - symbol: Cu # 8
    coordinates: [  0.250000000000000,  0.576303282229454,  0.956407280033133 ]
    mass: 63.546000
    reduced_to: 8
  - symbol: Cu # 9
    coordinates: [  0.750000000000000,  0.943941933333229,  0.885959689360098 ]
    mass: 63.546000
    reduced_to: 9
  - symbol: Cu # 10
    coordinates: [  0.250000000000000,  0.056058066666771,  0.114040310639902 ]
    mass: 63.546000
    reduced_to: 10
  - symbol: Cu # 11
    coordinates: [  0.750000000000000,  0.443941933333229,  0.614040310639902 ]
    mass: 63.546000
    reduced_to: 11
  - symbol: Cu # 12
    coordinates: [  0.250000000000000,  0.556058066666771,  0.385959689360098 ]
    mass: 63.546000
    reduced_to: 12
  - symbol: Te # 13
    coordinates: [  0.250000000000000,  0.840628153418677,  0.962308012682719 ]
    mass: 127.600000
    reduced_to: 13
  - symbol: Te # 14
    coordinates: [  0.750000000000000,  0.159371846581323,  0.037691987317281 ]
    mass: 127.600000
    reduced_to: 14
  - symbol: Te # 15
    coordinates: [  0.750000000000000,  0.659371846581323,  0.462308012682719 ]
    mass: 127.600000
    reduced_to: 15
  - symbol: Te # 16
    coordinates: [  0.250000000000000,  0.340628153418677,  0.537691987317281 ]
    mass: 127.600000
    reduced_to: 16
  - symbol: Te # 17
    coordinates: [  0.750000000000000,  0.525169279884357,  0.830792447215930 ]
    mass: 127.600000
    reduced_to: 17
  - symbol: Te # 18
    coordinates: [  0.250000000000000,  0.474830720115643,  0.169207552784070 ]
    mass: 127.600000
    reduced_to: 18
  - symbol: Te # 19
    coordinates: [  0.750000000000000,  0.025169279884357,  0.669207552784070 ]
    mass: 127.600000
    reduced_to: 19
  - symbol: Te # 20
    coordinates: [  0.250000000000000,  0.974830720115643,  0.330792447215930 ]
    mass: 127.600000
    reduced_to: 20

supercell:
  lattice:
  - [    22.343211628929403,     0.000000000000000,     0.000000000000001 ] # a
  - [    -0.000000000000001,    20.291869495418968,     0.000000000000001 ] # b
  - [     0.000000000000000,     0.000000000000000,    23.077913081625894 ] # c
  points:
  - symbol: Ba # 1
    coordinates: [  0.150000000000000,  0.377932432097972,  0.088825129650844 ]
    mass: 137.327000
    reduced_to: 1
  - symbol: Ba # 2
    coordinates: [  0.350000000000000,  0.377932432097972,  0.088825129650844 ]
    mass: 137.327000
    reduced_to: 1
  - symbol: Ba # 3
    coordinates: [  0.550000000000000,  0.377932432097972,  0.088825129650844 ]
    mass: 137.327000
    reduced_to: 1
  - symbol: Ba # 4
    coordinates: [  0.750000000000000,  0.377932432097972,  0.088825129650844 ]
    mass: 137.327000
    reduced_to: 1
  - symbol: Ba # 5
    coordinates: [  0.950000000000000,  0.377932432097972,  0.088825129650844 ]
    mass: 137.327000
    reduced_to: 1
  - symbol: Ba # 6
    coordinates: [  0.150000000000000,  0.877932432097972,  0.088825129650844 ]
    mass: 137.327000
    reduced_to: 1
  - symbol: Ba # 7
    coordinates: [  0.350000000000000,  0.877932432097972,  0.088825129650844 ]
    mass: 137.327000
    reduced_to: 1
  - symbol: Ba # 8
    coordinates: [  0.550000000000000,  0.877932432097972,  0.088825129650844 ]
    mass: 137.327000
    reduced_to: 1
  - symbol: Ba # 9
    coordinates: [  0.750000000000000,  0.877932432097972,  0.088825129650844 ]
    mass: 137.327000
    reduced_to: 1
  - symbol: Ba # 10
    coordinates: [  0.950000000000000,  0.877932432097972,  0.088825129650844 ]
    mass: 137.327000
    reduced_to: 1
  - symbol: Ba # 11
    coordinates: [  0.150000000000000,  0.377932432097972,  0.588825129650844 ]
    mass: 137.327000
    reduced_to: 1
  - symbol: Ba # 12
    coordinates: [  0.350000000000000,  0.377932432097972,  0.588825129650844 ]
    mass: 137.327000
    reduced_to: 1
  - symbol: Ba # 13
    coordinates: [  0.550000000000000,  0.377932432097972,  0.588825129650844 ]
    mass: 137.327000
    reduced_to: 1
  - symbol: Ba # 14
    coordinates: [  0.750000000000000,  0.377932432097972,  0.588825129650844 ]
    mass: 137.327000
    reduced_to: 1
  - symbol: Ba # 15
    coordinates: [  0.950000000000000,  0.377932432097972,  0.588825129650844 ]
    mass: 137.327000
    reduced_to: 1
  - symbol: Ba # 16
    coordinates: [  0.150000000000000,  0.877932432097972,  0.588825129650844 ]
    mass: 137.327000
    reduced_to: 1
  - symbol: Ba # 17
    coordinates: [  0.350000000000000,  0.877932432097972,  0.588825129650844 ]
    mass: 137.327000
    reduced_to: 1
  - symbol: Ba # 18
    coordinates: [  0.550000000000000,  0.877932432097972,  0.588825129650844 ]
    mass: 137.327000
    reduced_to: 1
  - symbol: Ba # 19
    coordinates: [  0.750000000000000,  0.877932432097972,  0.588825129650844 ]
    mass: 137.327000
    reduced_to: 1
  - symbol: Ba # 20
    coordinates: [  0.950000000000000,  0.877932432097972,  0.588825129650844 ]
    mass: 137.327000
    reduced_to: 1
  - symbol: Ba # 21
    coordinates: [  0.050000000000000,  0.122067567902028,  0.411174870349156 ]
    mass: 137.327000
    reduced_to: 21
  - symbol: Ba # 22
    coordinates: [  0.250000000000000,  0.122067567902028,  0.411174870349156 ]
    mass: 137.327000
    reduced_to: 21
  - symbol: Ba # 23
    coordinates: [  0.450000000000000,  0.122067567902028,  0.411174870349156 ]
    mass: 137.327000
    reduced_to: 21
  - symbol: Ba # 24
    coordinates: [  0.650000000000000,  0.122067567902028,  0.411174870349156 ]
    mass: 137.327000
    reduced_to: 21
  - symbol: Ba # 25
    coordinates: [  0.850000000000000,  0.122067567902028,  0.411174870349156 ]
    mass: 137.327000
    reduced_to: 21
  - symbol: Ba # 26
    coordinates: [  0.050000000000000,  0.622067567902028,  0.411174870349156 ]
    mass: 137.327000
    reduced_to: 21
  - symbol: Ba # 27
    coordinates: [  0.250000000000000,  0.622067567902028,  0.411174870349156 ]
    mass: 137.327000
    reduced_to: 21
  - symbol: Ba # 28
    coordinates: [  0.450000000000000,  0.622067567902028,  0.411174870349156 ]
    mass: 137.327000
    reduced_to: 21
  - symbol: Ba # 29
    coordinates: [  0.650000000000000,  0.622067567902028,  0.411174870349156 ]
    mass: 137.327000
    reduced_to: 21
  - symbol: Ba # 30
    coordinates: [  0.850000000000000,  0.622067567902028,  0.411174870349156 ]
    mass: 137.327000
    reduced_to: 21
  - symbol: Ba # 31
    coordinates: [  0.050000000000000,  0.122067567902028,  0.911174870349156 ]
    mass: 137.327000
    reduced_to: 21
  - symbol: Ba # 32
    coordinates: [  0.250000000000000,  0.122067567902028,  0.911174870349156 ]
    mass: 137.327000
    reduced_to: 21
  - symbol: Ba # 33
    coordinates: [  0.450000000000000,  0.122067567902028,  0.911174870349156 ]
    mass: 137.327000
    reduced_to: 21
  - symbol: Ba # 34
    coordinates: [  0.650000000000000,  0.122067567902028,  0.911174870349156 ]
    mass: 137.327000
    reduced_to: 21
  - symbol: Ba # 35
    coordinates: [  0.850000000000000,  0.122067567902028,  0.911174870349156 ]
    mass: 137.327000
    reduced_to: 21
  - symbol: Ba # 36
    coordinates: [  0.050000000000000,  0.622067567902028,  0.911174870349156 ]
    mass: 137.327000
    reduced_to: 21
  - symbol: Ba # 37
    coordinates: [  0.250000000000000,  0.622067567902028,  0.911174870349156 ]
    mass: 137.327000
    reduced_to: 21
  - symbol: Ba # 38
    coordinates: [  0.450000000000000,  0.622067567902028,  0.911174870349156 ]
    mass: 137.327000
    reduced_to: 21
  - symbol: Ba # 39
    coordinates: [  0.650000000000000,  0.622067567902028,  0.911174870349156 ]
    mass: 137.327000
    reduced_to: 21
  - symbol: Ba # 40
    coordinates: [  0.850000000000000,  0.622067567902028,  0.911174870349156 ]
    mass: 137.327000
    reduced_to: 21
  - symbol: Ba # 41
    coordinates: [  0.150000000000000,  0.127932432097972,  0.161174870349156 ]
    mass: 137.327000
    reduced_to: 41
  - symbol: Ba # 42
    coordinates: [  0.350000000000000,  0.127932432097972,  0.161174870349156 ]
    mass: 137.327000
    reduced_to: 41
  - symbol: Ba # 43
    coordinates: [  0.550000000000000,  0.127932432097972,  0.161174870349156 ]
    mass: 137.327000
    reduced_to: 41
  - symbol: Ba # 44
    coordinates: [  0.750000000000000,  0.127932432097972,  0.161174870349156 ]
    mass: 137.327000
    reduced_to: 41
  - symbol: Ba # 45
    coordinates: [  0.950000000000000,  0.127932432097972,  0.161174870349156 ]
    mass: 137.327000
    reduced_to: 41
  - symbol: Ba # 46
    coordinates: [  0.150000000000000,  0.627932432097972,  0.161174870349156 ]
    mass: 137.327000
    reduced_to: 41
  - symbol: Ba # 47
    coordinates: [  0.350000000000000,  0.627932432097972,  0.161174870349156 ]
    mass: 137.327000
    reduced_to: 41
  - symbol: Ba # 48
    coordinates: [  0.550000000000000,  0.627932432097972,  0.161174870349156 ]
    mass: 137.327000
    reduced_to: 41
  - symbol: Ba # 49
    coordinates: [  0.750000000000000,  0.627932432097972,  0.161174870349156 ]
    mass: 137.327000
    reduced_to: 41
  - symbol: Ba # 50
    coordinates: [  0.950000000000000,  0.627932432097972,  0.161174870349156 ]
    mass: 137.327000
    reduced_to: 41
  - symbol: Ba # 51
    coordinates: [  0.150000000000000,  0.127932432097972,  0.661174870349156 ]
    mass: 137.327000
    reduced_to: 41
  - symbol: Ba # 52
    coordinates: [  0.350000000000000,  0.127932432097972,  0.661174870349156 ]
    mass: 137.327000
    reduced_to: 41
  - symbol: Ba # 53
    coordinates: [  0.550000000000000,  0.127932432097972,  0.661174870349156 ]
    mass: 137.327000
    reduced_to: 41
  - symbol: Ba # 54
    coordinates: [  0.750000000000000,  0.127932432097972,  0.661174870349156 ]
    mass: 137.327000
    reduced_to: 41
  - symbol: Ba # 55
    coordinates: [  0.950000000000000,  0.127932432097972,  0.661174870349156 ]
    mass: 137.327000
    reduced_to: 41
  - symbol: Ba # 56
    coordinates: [  0.150000000000000,  0.627932432097972,  0.661174870349156 ]
    mass: 137.327000
    reduced_to: 41
  - symbol: Ba # 57
    coordinates: [  0.350000000000000,  0.627932432097972,  0.661174870349156 ]
    mass: 137.327000
    reduced_to: 41
  - symbol: Ba # 58
    coordinates: [  0.550000000000000,  0.627932432097972,  0.661174870349156 ]
    mass: 137.327000
    reduced_to: 41
  - symbol: Ba # 59
    coordinates: [  0.750000000000000,  0.627932432097972,  0.661174870349156 ]
    mass: 137.327000
    reduced_to: 41
  - symbol: Ba # 60
    coordinates: [  0.950000000000000,  0.627932432097972,  0.661174870349156 ]
    mass: 137.327000
    reduced_to: 41
  - symbol: Ba # 61
    coordinates: [  0.050000000000000,  0.372067567902028,  0.338825129650844 ]
    mass: 137.327000
    reduced_to: 61
  - symbol: Ba # 62
    coordinates: [  0.250000000000000,  0.372067567902028,  0.338825129650844 ]
    mass: 137.327000
    reduced_to: 61
  - symbol: Ba # 63
    coordinates: [  0.450000000000000,  0.372067567902028,  0.338825129650844 ]
    mass: 137.327000
    reduced_to: 61
  - symbol: Ba # 64
    coordinates: [  0.650000000000000,  0.372067567902028,  0.338825129650844 ]
    mass: 137.327000
    reduced_to: 61
  - symbol: Ba # 65
    coordinates: [  0.850000000000000,  0.372067567902028,  0.338825129650844 ]
    mass: 137.327000
    reduced_to: 61
  - symbol: Ba # 66
    coordinates: [  0.050000000000000,  0.872067567902028,  0.338825129650844 ]
    mass: 137.327000
    reduced_to: 61
  - symbol: Ba # 67
    coordinates: [  0.250000000000000,  0.872067567902028,  0.338825129650844 ]
    mass: 137.327000
    reduced_to: 61
  - symbol: Ba # 68
    coordinates: [  0.450000000000000,  0.872067567902028,  0.338825129650844 ]
    mass: 137.327000
    reduced_to: 61
  - symbol: Ba # 69
    coordinates: [  0.650000000000000,  0.872067567902028,  0.338825129650844 ]
    mass: 137.327000
    reduced_to: 61
  - symbol: Ba # 70
    coordinates: [  0.850000000000000,  0.872067567902028,  0.338825129650844 ]
    mass: 137.327000
    reduced_to: 61
  - symbol: Ba # 71
    coordinates: [  0.050000000000000,  0.372067567902028,  0.838825129650844 ]
    mass: 137.327000
    reduced_to: 61
  - symbol: Ba # 72
    coordinates: [  0.250000000000000,  0.372067567902028,  0.838825129650844 ]
    mass: 137.327000
    reduced_to: 61
  - symbol: Ba # 73
    coordinates: [  0.450000000000000,  0.372067567902028,  0.838825129650844 ]
    mass: 137.327000
    reduced_to: 61
  - symbol: Ba # 74
    coordinates: [  0.650000000000000,  0.372067567902028,  0.838825129650844 ]
    mass: 137.327000
    reduced_to: 61
  - symbol: Ba # 75
    coordinates: [  0.850000000000000,  0.372067567902028,  0.838825129650844 ]
    mass: 137.327000
    reduced_to: 61
  - symbol: Ba # 76
    coordinates: [  0.050000000000000,  0.872067567902028,  0.838825129650844 ]
    mass: 137.327000
    reduced_to: 61
  - symbol: Ba # 77
    coordinates: [  0.250000000000000,  0.872067567902028,  0.838825129650844 ]
    mass: 137.327000
    reduced_to: 61
  - symbol: Ba # 78
    coordinates: [  0.450000000000000,  0.872067567902028,  0.838825129650844 ]
    mass: 137.327000
    reduced_to: 61
  - symbol: Ba # 79
    coordinates: [  0.650000000000000,  0.872067567902028,  0.838825129650844 ]
    mass: 137.327000
    reduced_to: 61
  - symbol: Ba # 80
    coordinates: [  0.850000000000000,  0.872067567902028,  0.838825129650844 ]
    mass: 137.327000
    reduced_to: 61
  - symbol: Cu # 81
    coordinates: [  0.050000000000000,  0.038151641114727,  0.271796359983433 ]
    mass: 63.546000
    reduced_to: 81
  - symbol: Cu # 82
    coordinates: [  0.250000000000000,  0.038151641114727,  0.271796359983433 ]
    mass: 63.546000
    reduced_to: 81
  - symbol: Cu # 83
    coordinates: [  0.450000000000000,  0.038151641114727,  0.271796359983433 ]
    mass: 63.546000
    reduced_to: 81
  - symbol: Cu # 84
    coordinates: [  0.650000000000000,  0.038151641114727,  0.271796359983433 ]
    mass: 63.546000
    reduced_to: 81
  - symbol: Cu # 85
    coordinates: [  0.850000000000000,  0.038151641114727,  0.271796359983433 ]
    mass: 63.546000
    reduced_to: 81
  - symbol: Cu # 86
    coordinates: [  0.050000000000000,  0.538151641114727,  0.271796359983433 ]
    mass: 63.546000
    reduced_to: 81
  - symbol: Cu # 87
    coordinates: [  0.250000000000000,  0.538151641114727,  0.271796359983433 ]
    mass: 63.546000
    reduced_to: 81
  - symbol: Cu # 88
    coordinates: [  0.450000000000000,  0.538151641114727,  0.271796359983433 ]
    mass: 63.546000
    reduced_to: 81
  - symbol: Cu # 89
    coordinates: [  0.650000000000000,  0.538151641114727,  0.271796359983433 ]
    mass: 63.546000
    reduced_to: 81
  - symbol: Cu # 90
    coordinates: [  0.850000000000000,  0.538151641114727,  0.271796359983433 ]
    mass: 63.546000
    reduced_to: 81
  - symbol: Cu # 91
    coordinates: [  0.050000000000000,  0.038151641114727,  0.771796359983433 ]
    mass: 63.546000
    reduced_to: 81
  - symbol: Cu # 92
    coordinates: [  0.250000000000000,  0.038151641114727,  0.771796359983433 ]
    mass: 63.546000
    reduced_to: 81
  - symbol: Cu # 93
    coordinates: [  0.450000000000000,  0.038151641114727,  0.771796359983433 ]
    mass: 63.546000
    reduced_to: 81
  - symbol: Cu # 94
    coordinates: [  0.650000000000000,  0.038151641114727,  0.771796359983433 ]
    mass: 63.546000
    reduced_to: 81
  - symbol: Cu # 95
    coordinates: [  0.850000000000000,  0.038151641114727,  0.771796359983433 ]
    mass: 63.546000
    reduced_to: 81
  - symbol: Cu # 96
    coordinates: [  0.050000000000000,  0.538151641114727,  0.771796359983433 ]
    mass: 63.546000
    reduced_to: 81
  - symbol: Cu # 97
    coordinates: [  0.250000000000000,  0.538151641114727,  0.771796359983433 ]
    mass: 63.546000
    reduced_to: 81
  - symbol: Cu # 98
    coordinates: [  0.450000000000000,  0.538151641114727,  0.771796359983433 ]
    mass: 63.546000
    reduced_to: 81
  - symbol: Cu # 99
    coordinates: [  0.650000000000000,  0.538151641114727,  0.771796359983433 ]
    mass: 63.546000
    reduced_to: 81
  - symbol: Cu # 100
    coordinates: [  0.850000000000000,  0.538151641114727,  0.771796359983433 ]
    mass: 63.546000
    reduced_to: 81
  - symbol: Cu # 101
    coordinates: [  0.150000000000000,  0.461848358885273,  0.228203640016567 ]
    mass: 63.546000
    reduced_to: 101
  - symbol: Cu # 102
    coordinates: [  0.350000000000000,  0.461848358885273,  0.228203640016567 ]
    mass: 63.546000
    reduced_to: 101
  - symbol: Cu # 103
    coordinates: [  0.550000000000000,  0.461848358885273,  0.228203640016567 ]
    mass: 63.546000
    reduced_to: 101
  - symbol: Cu # 104
    coordinates: [  0.750000000000000,  0.461848358885273,  0.228203640016567 ]
    mass: 63.546000
    reduced_to: 101
  - symbol: Cu # 105
    coordinates: [  0.950000000000000,  0.461848358885273,  0.228203640016567 ]
    mass: 63.546000
    reduced_to: 101
  - symbol: Cu # 106
    coordinates: [  0.150000000000000,  0.961848358885273,  0.228203640016567 ]
    mass: 63.546000
    reduced_to: 101
  - symbol: Cu # 107
    coordinates: [  0.350000000000000,  0.961848358885273,  0.228203640016567 ]
    mass: 63.546000
    reduced_to: 101
  - symbol: Cu # 108
    coordinates: [  0.550000000000000,  0.961848358885273,  0.228203640016567 ]
    mass: 63.546000
    reduced_to: 101
  - symbol: Cu # 109
    coordinates: [  0.750000000000000,  0.961848358885273,  0.228203640016567 ]
    mass: 63.546000
    reduced_to: 101
  - symbol: Cu # 110
    coordinates: [  0.950000000000000,  0.961848358885273,  0.228203640016567 ]
    mass: 63.546000
    reduced_to: 101
  - symbol: Cu # 111
    coordinates: [  0.150000000000000,  0.461848358885273,  0.728203640016567 ]
    mass: 63.546000
    reduced_to: 101
  - symbol: Cu # 112
    coordinates: [  0.350000000000000,  0.461848358885273,  0.728203640016567 ]
    mass: 63.546000
    reduced_to: 101
  - symbol: Cu # 113
    coordinates: [  0.550000000000000,  0.461848358885273,  0.728203640016567 ]
    mass: 63.546000
    reduced_to: 101
  - symbol: Cu # 114
    coordinates: [  0.750000000000000,  0.461848358885273,  0.728203640016567 ]
    mass: 63.546000
    reduced_to: 101
  - symbol: Cu # 115
    coordinates: [  0.950000000000000,  0.461848358885273,  0.728203640016567 ]
    mass: 63.546000
    reduced_to: 101
  - symbol: Cu # 116
    coordinates: [  0.150000000000000,  0.961848358885273,  0.728203640016567 ]
    mass: 63.546000
    reduced_to: 101
  - symbol: Cu # 117
    coordinates: [  0.350000000000000,  0.961848358885273,  0.728203640016567 ]
    mass: 63.546000
    reduced_to: 101
  - symbol: Cu # 118
    coordinates: [  0.550000000000000,  0.961848358885273,  0.728203640016567 ]
    mass: 63.546000
    reduced_to: 101
  - symbol: Cu # 119
    coordinates: [  0.750000000000000,  0.961848358885273,  0.728203640016567 ]
    mass: 63.546000
    reduced_to: 101
  - symbol: Cu # 120
    coordinates: [  0.950000000000000,  0.961848358885273,  0.728203640016567 ]
    mass: 63.546000
    reduced_to: 101
  - symbol: Cu # 121
    coordinates: [  0.150000000000000,  0.211848358885273,  0.021796359983433 ]
    mass: 63.546000
    reduced_to: 121
  - symbol: Cu # 122
    coordinates: [  0.350000000000000,  0.211848358885273,  0.021796359983433 ]
    mass: 63.546000
    reduced_to: 121
  - symbol: Cu # 123
    coordinates: [  0.550000000000000,  0.211848358885273,  0.021796359983433 ]
    mass: 63.546000
    reduced_to: 121
  - symbol: Cu # 124
    coordinates: [  0.750000000000000,  0.211848358885273,  0.021796359983433 ]
    mass: 63.546000
    reduced_to: 121
  - symbol: Cu # 125
    coordinates: [  0.950000000000000,  0.211848358885273,  0.021796359983433 ]
    mass: 63.546000
    reduced_to: 121
  - symbol: Cu # 126
    coordinates: [  0.150000000000000,  0.711848358885273,  0.021796359983433 ]
    mass: 63.546000
    reduced_to: 121
  - symbol: Cu # 127
    coordinates: [  0.350000000000000,  0.711848358885273,  0.021796359983433 ]
    mass: 63.546000
    reduced_to: 121
  - symbol: Cu # 128
    coordinates: [  0.550000000000000,  0.711848358885273,  0.021796359983433 ]
    mass: 63.546000
    reduced_to: 121
  - symbol: Cu # 129
    coordinates: [  0.750000000000000,  0.711848358885273,  0.021796359983433 ]
    mass: 63.546000
    reduced_to: 121
  - symbol: Cu # 130
    coordinates: [  0.950000000000000,  0.711848358885273,  0.021796359983433 ]
    mass: 63.546000
    reduced_to: 121
  - symbol: Cu # 131
    coordinates: [  0.150000000000000,  0.211848358885273,  0.521796359983434 ]
    mass: 63.546000
    reduced_to: 121
  - symbol: Cu # 132
    coordinates: [  0.350000000000000,  0.211848358885273,  0.521796359983434 ]
    mass: 63.546000
    reduced_to: 121
  - symbol: Cu # 133
    coordinates: [  0.550000000000000,  0.211848358885273,  0.521796359983434 ]
    mass: 63.546000
    reduced_to: 121
  - symbol: Cu # 134
    coordinates: [  0.750000000000000,  0.211848358885273,  0.521796359983434 ]
    mass: 63.546000
    reduced_to: 121
  - symbol: Cu # 135
    coordinates: [  0.950000000000000,  0.211848358885273,  0.521796359983434 ]
    mass: 63.546000
    reduced_to: 121
  - symbol: Cu # 136
    coordinates: [  0.150000000000000,  0.711848358885273,  0.521796359983434 ]
    mass: 63.546000
    reduced_to: 121
  - symbol: Cu # 137
    coordinates: [  0.350000000000000,  0.711848358885273,  0.521796359983434 ]
    mass: 63.546000
    reduced_to: 121
  - symbol: Cu # 138
    coordinates: [  0.550000000000000,  0.711848358885273,  0.521796359983434 ]
    mass: 63.546000
    reduced_to: 121
  - symbol: Cu # 139
    coordinates: [  0.750000000000000,  0.711848358885273,  0.521796359983434 ]
    mass: 63.546000
    reduced_to: 121
  - symbol: Cu # 140
    coordinates: [  0.950000000000000,  0.711848358885273,  0.521796359983434 ]
    mass: 63.546000
    reduced_to: 121
  - symbol: Cu # 141
    coordinates: [  0.050000000000000,  0.288151641114727,  0.478203640016567 ]
    mass: 63.546000
    reduced_to: 141
  - symbol: Cu # 142
    coordinates: [  0.250000000000000,  0.288151641114727,  0.478203640016567 ]
    mass: 63.546000
    reduced_to: 141
  - symbol: Cu # 143
    coordinates: [  0.450000000000000,  0.288151641114727,  0.478203640016567 ]
    mass: 63.546000
    reduced_to: 141
  - symbol: Cu # 144
    coordinates: [  0.650000000000000,  0.288151641114727,  0.478203640016567 ]
    mass: 63.546000
    reduced_to: 141
  - symbol: Cu # 145
    coordinates: [  0.850000000000000,  0.288151641114727,  0.478203640016567 ]
    mass: 63.546000
    reduced_to: 141
  - symbol: Cu # 146
    coordinates: [  0.050000000000000,  0.788151641114727,  0.478203640016567 ]
    mass: 63.546000
    reduced_to: 141
  - symbol: Cu # 147
    coordinates: [  0.250000000000000,  0.788151641114727,  0.478203640016567 ]
    mass: 63.546000
    reduced_to: 141
  - symbol: Cu # 148
    coordinates: [  0.450000000000000,  0.788151641114727,  0.478203640016567 ]
    mass: 63.546000
    reduced_to: 141
  - symbol: Cu # 149
    coordinates: [  0.650000000000000,  0.788151641114727,  0.478203640016567 ]
    mass: 63.546000
    reduced_to: 141
  - symbol: Cu # 150
    coordinates: [  0.850000000000000,  0.788151641114727,  0.478203640016567 ]
    mass: 63.546000
    reduced_to: 141
  - symbol: Cu # 151
    coordinates: [  0.050000000000000,  0.288151641114727,  0.978203640016567 ]
    mass: 63.546000
    reduced_to: 141
  - symbol: Cu # 152
    coordinates: [  0.250000000000000,  0.288151641114727,  0.978203640016567 ]
    mass: 63.546000
    reduced_to: 141
  - symbol: Cu # 153
    coordinates: [  0.450000000000000,  0.288151641114727,  0.978203640016567 ]
    mass: 63.546000
    reduced_to: 141
  - symbol: Cu # 154
    coordinates: [  0.650000000000000,  0.288151641114727,  0.978203640016567 ]
    mass: 63.546000
    reduced_to: 141
  - symbol: Cu # 155
    coordinates: [  0.850000000000000,  0.288151641114727,  0.978203640016567 ]
    mass: 63.546000
    reduced_to: 141
  - symbol: Cu # 156
    coordinates: [  0.050000000000000,  0.788151641114727,  0.978203640016567 ]
    mass: 63.546000
    reduced_to: 141
  - symbol: Cu # 157
    coordinates: [  0.250000000000000,  0.788151641114727,  0.978203640016567 ]
    mass: 63.546000
    reduced_to: 141
  - symbol: Cu # 158
    coordinates: [  0.450000000000000,  0.788151641114727,  0.978203640016567 ]
    mass: 63.546000
    reduced_to: 141
  - symbol: Cu # 159
    coordinates: [  0.650000000000000,  0.788151641114727,  0.978203640016567 ]
    mass: 63.546000
    reduced_to: 141
  - symbol: Cu # 160
    coordinates: [  0.850000000000000,  0.788151641114727,  0.978203640016567 ]
    mass: 63.546000
    reduced_to: 141
  - symbol: Cu # 161
    coordinates: [  0.150000000000000,  0.471970966666615,  0.442979844680049 ]
    mass: 63.546000
    reduced_to: 161
  - symbol: Cu # 162
    coordinates: [  0.350000000000000,  0.471970966666615,  0.442979844680049 ]
    mass: 63.546000
    reduced_to: 161
  - symbol: Cu # 163
    coordinates: [  0.550000000000000,  0.471970966666615,  0.442979844680049 ]
    mass: 63.546000
    reduced_to: 161
  - symbol: Cu # 164
    coordinates: [  0.750000000000000,  0.471970966666615,  0.442979844680049 ]
    mass: 63.546000
    reduced_to: 161
  - symbol: Cu # 165
    coordinates: [  0.950000000000000,  0.471970966666615,  0.442979844680049 ]
    mass: 63.546000
    reduced_to: 161
  - symbol: Cu # 166
    coordinates: [  0.150000000000000,  0.971970966666615,  0.442979844680049 ]
    mass: 63.546000