phonopy:
  version: "2.21.0"
  frequency_unit_conversion_factor: 15.633302
  symmetry_tolerance: 1.00000e-04

space_group:
  type: "Pnma"
  number: 62
  Hall_symbol: "-P 2ac 2n"

primitive_matrix:
- [  0.000000000000000,  1.000000000000000,  0.000000000000000 ]
- [  0.000000000000000,  0.000000000000000,  1.000000000000000 ]
- [  1.000000000000000,  0.000000000000000,  0.000000000000000 ]

supercell_matrix:
- [   5,   0,   0 ]
- [   0,   4,   0 ]
- [   0,   0,   3 ]

primitive_cell:
  lattice:
  - [     0.000000000000000,     0.000000000000000,     8.493827043714722 ] # a
  - [     4.247052396562405,     0.000000000000000,     0.000000000000000 ] # b
  - [    -0.000000000000000,     6.006190180853771,     0.000000000000000 ] # c
  points:
  - symbol: Pb # 1
    coordinates: [  0.124916219715170,  0.750000000000000,  0.749953840587424 ]
    mass: 207.200000
  - symbol: Pb # 2
    coordinates: [  0.624916219715170,  0.750000000000000,  0.750046159412576 ]
    mass: 207.200000
  - symbol: Pb # 3
    coordinates: [  0.875083780284830,  0.250000000000000,  0.250046159412576 ]
    mass: 207.200000
  - symbol: Pb # 4
    coordinates: [  0.375083780284830,  0.250000000000000,  0.249953840587424 ]
    mass: 207.200000
  - symbol: S  # 5
    coordinates: [  0.874983024432788,  0.250000000000000,  0.749958263407818 ]
    mass: 32.065000
  - symbol: S  # 6
    coordinates: [  0.374983024432788,  0.250000000000000,  0.750041736592182 ]
    mass: 32.065000
  - symbol: S  # 7
    coordinates: [  0.125016975567212,  0.750000000000000,  0.250041736592182 ]
    mass: 32.065000
  - symbol: S  # 8
    coordinates: [  0.625016975567212,  0.750000000000000,  0.249958263407818 ]
    mass: 32.065000
  reciprocal_lattice: # without 2pi
  - [    -0.000000000000000,    -0.000000000000000,     0.117732559758205 ] # a*
  - [     0.235457420023687,     0.000000000000000,     0.000000000000000 ] # b*
  - [     0.000000000000000,     0.166494894415390,     0.000000000000000 ] # c*

unit_cell:
  lattice:
  - [     4.247052396562405,     0.000000000000000,     0.000000000000000 ] # a
  - [    -0.000000000000000,     6.006190180853769,     0.000000000000000 ] # b
  - [     0.000000000000000,     0.000000000000000,     8.493827043714720 ] # c
  points:
  - symbol: Pb # 1
    coordinates: [  0.750000000000000,  0.749953840587424,  0.124916219715170 ]
    mass: 207.200000
    reduced_to: 1
  - symbol: Pb # 2
    coordinates: [  0.750000000000000,  0.750046159412576,  0.624916219715170 ]
    mass: 207.200000
    reduced_to: 2
  - symbol: Pb # 3
    coordinates: [  0.250000000000000,  0.250046159412576,  0.875083780284830 ]
    mass: 207.200000
    reduced_to: 3
  - symbol: Pb # 4
    coordinates: [  0.250000000000000,  0.249953840587424,  0.375083780284830 ]
    mass: 207.200000
    reduced_to: 4
  - symbol: S  # 5
    coordinates: [  0.250000000000000,  0.749958263407818,  0.874983024432788 ]
    mass: 32.065000
    reduced_to: 5
  - symbol: S  # 6
    coordinates: [  0.250000000000000,  0.750041736592182,  0.374983024432788 ]
    mass: 32.065000
    reduced_to: 6
  - symbol: S  # 7
    coordinates: [  0.750000000000000,  0.250041736592182,  0.125016975567212 ]
    mass: 32.065000
    reduced_to: 7
  - symbol: S  # 8
    coordinates: [  0.750000000000000,  0.249958263407818,  0.625016975567212 ]
    mass: 32.065000
    reduced_to: 8

supercell:
  lattice:
  - [    21.235261982812027,     0.000000000000000,     0.000000000000001 ] # a
  - [    -0.000000000000002,    24.024760723415078,     0.000000000000002 ] # b
  - [     0.000000000000000,     0.000000000000000,    25.481481131144161 ] # c
  points:
  - symbol: Pb # 1
    coordinates: [  0.150000000000000,  0.187488460146856,  0.041638739905057 ]
    mass: 207.200000
    reduced_to: 1
  - symbol: Pb # 2
    coordinates: [  0.350000000000000,  0.187488460146856,  0.041638739905057 ]
    mass: 207.200000
    reduced_to: 1
  - symbol: Pb # 3
    coordinates: [  0.550000000000000,  0.187488460146856,  0.041638739905057 ]
    mass: 207.200000
    reduced_to: 1
  - symbol: Pb # 4
    coordinates: [  0.750000000000000,  0.187488460146856,  0.041638739905057 ]
    mass: 207.200000
    reduced_to: 1
  - symbol: Pb # 5
    coordinates: [  0.950000000000000,  0.187488460146856,  0.041638739905057 ]
    mass: 207.200000
    reduced_to: 1
  - symbol: Pb # 6
    coordinates: [  0.150000000000000,  0.437488460146856,  0.041638739905057 ]
    mass: 207.200000
    reduced_to: 1
  - symbol: Pb # 7
    coordinates: [  0.350000000000000,  0.437488460146856,  0.041638739905057 ]
    mass: 207.200000
    reduced_to: 1
  - symbol: Pb # 8
    coordinates: [  0.550000000000000,  0.437488460146856,  0.041638739905057 ]
    mass: 207.200000
    reduced_to: 1
  - symbol: Pb # 9
    coordinates: [  0.750000000000000,  0.437488460146856,  0.041638739905057 ]
    mass: 207.200000
    reduced_to: 1
  - symbol: Pb # 10
    coordinates: [  0.950000000000000,  0.437488460146856,  0.041638739905057 ]
    mass: 207.200000
    reduced_to: 1
  - symbol: Pb # 11
    coordinates: [  0.150000000000000,  0.687488460146856,  0.041638739905057 ]
    mass: 207.200000
    reduced_to: 1
  - symbol: Pb # 12
    coordinates: [  0.350000000000000,  0.687488460146856,  0.041638739905057 ]
    mass: 207.200000
    reduced_to: 1
  - symbol: Pb # 13
    coordinates: [  0.550000000000000,  0.687488460146856,  0.041638739905057 ]
    mass: 207.200000
    reduced_to: 1
  - symbol: Pb # 14
    coordinates: [  0.750000000000000,  0.687488460146856,  0.041638739905057 ]
    mass: 207.200000
    reduced_to: 1
  - symbol: Pb # 15
    coordinates: [  0.950000000000000,  0.687488460146856,  0.041638739905057 ]
    mass: 207.200000
    reduced_to: 1
  - symbol: Pb # 16
    coordinates: [  0.150000000000000,  0.937488460146856,  0.041638739905057 ]
    mass: 207.200000
    reduced_to: 1
  - symbol: Pb # 17
    coordinates: [  0.350000000000000,  0.937488460146856,  0.041638739905057 ]
    mass: 207.200000
    reduced_to: 1
  - symbol: Pb # 18
    coordinates: [  0.550000000000000,  0.937488460146856,  0.041638739905057 ]
    mass: 207.200000
    reduced_to: 1
  - symbol: Pb # 19
    coordinates: [  0.750000000000000,  0.937488460146856,  0.041638739905057 ]
    mass: 207.200000
    reduced_to: 1
  - symbol: Pb # 20
    coordinates: [  0.950000000000000,  0.937488460146856,  0.041638739905057 ]
    mass: 207.200000
    reduced_to: 1
  - symbol: Pb # 21
    coordinates: [  0.150000000000000,  0.187488460146856,  0.374972073238390 ]
    mass: 207.200000
    reduced_to: 1
  - symbol: Pb # 22
    coordinates: [  0.350000000000000,  0.187488460146856,  0.374972073238390 ]
    mass: 207.200000
    reduced_to: 1
  - symbol: Pb # 23
    coordinates: [  0.550000000000000,  0.187488460146856,  0.374972073238390 ]
    mass: 207.200000
    reduced_to: 1
  - symbol: Pb # 24
    coordinates: [  0.750000000000000,  0.187488460146856,  0.374972073238390 ]
    mass: 207.200000
    reduced_to: 1
  - symbol: Pb # 25
    coordinates: [  0.950000000000000,  0.187488460146856,  0.374972073238390 ]
    mass: 207.200000
    reduced_to: 1
  - symbol: Pb # 26
    coordinates: [  0.150000000000000,  0.437488460146856,  0.374972073238390 ]
    mass: 207.200000
    reduced_to: 1
  - symbol: Pb # 27
    coordinates: [  0.350000000000000,  0.437488460146856,  0.374972073238390 ]
    mass: 207.200000
    reduced_to: 1
  - symbol: Pb # 28
    coordinates: [  0.550000000000000,  0.437488460146856,  0.374972073238390 ]
    mass: 207.200000
    reduced_to: 1
  - symbol: Pb # 29
    coordinates: [  0.750000000000000,  0.437488460146856,  0.374972073238390 ]
    mass: 207.200000
    reduced_to: 1
  - symbol: Pb # 30
    coordinates: [  0.950000000000000,  0.437488460146856,  0.374972073238390 ]
    mass: 207.200000
    reduced_to: 1
  - symbol: Pb # 31
    coordinates: [  0.150000000000000,  0.687488460146856,  0.374972073238390 ]
    mass: 207.200000
    reduced_to: 1
  - symbol: Pb # 32
    coordinates: [  0.350000000000000,  0.687488460146856,  0.374972073238390 ]
    mass: 207.200000
    reduced_to: 1
  - symbol: Pb # 33
    coordinates: [  0.550000000000000,  0.687488460146856,  0.374972073238390 ]
    mass: 207.200000
    reduced_to: 1
  - symbol: Pb # 34
    coordinates: [  0.750000000000000,  0.687488460146856,  0.374972073238390 ]
    mass: 207.200000
    reduced_to: 1
  - symbol: Pb # 35
    coordinates: [  0.950000000000000,  0.687488460146856,  0.374972073238390 ]
    mass: 207.200000
    reduced_to: 1
  - symbol: Pb # 36
    coordinates: [  0.150000000000000,  0.937488460146856,  0.374972073238390 ]
    mass: 207.200000
    reduced_to: 1
  - symbol: Pb # 37
    coordinates: [  0.350000000000000,  0.937488460146856,  0.374972073238390 ]
    mass: 207.200000
    reduced_to: 1
  - symbol: Pb # 38
    coordinates: [  0.550000000000000,  0.937488460146856,  0.374972073238390 ]
    mass: 207.200000
    reduced_to: 1
  - symbol: Pb # 39
    coordinates: [  0.750000000000000,  0.937488460146856,  0.374972073238390 ]
    mass: 207.200000
    reduced_to: 1
  - symbol: Pb # 40
    coordinates: [  0.950000000000000,  0.937488460146856,  0.374972073238390 ]
    mass: 207.200000
    reduced_to: 1
  - symbol: Pb # 41
    coordinates: [  0.150000000000000,  0.187488460146856,  0.708305406571723 ]
    mass: 207.200000
    reduced_to: 1
  - symbol: Pb # 42
    coordinates: [  0.350000000000000,  0.187488460146856,  0.708305406571723 ]
    mass: 207.200000
    reduced_to: 1
  - symbol: Pb # 43
    coordinates: [  0.550000000000000,  0.187488460146856,  0.708305406571723 ]
    mass: 207.200000
    reduced_to: 1
  - symbol: Pb # 44
    coordinates: [  0.750000000000000,  0.187488460146856,  0.708305406571723 ]
    mass: 207.200000
    reduced_to: 1
  - symbol: Pb # 45
    coordinates: [  0.950000000000000,  0.187488460146856,  0.708305406571723 ]
    mass: 207.200000
    reduced_to: 1
  - symbol: Pb # 46
    coordinates: [  0.150000000000000,  0.437488460146856,  0.708305406571723 ]
    mass: 207.200000
    reduced_to: 1
  - symbol: Pb # 47
    coordinates: [  0.350000000000000,  0.437488460146856,  0.708305406571723 ]
    mass: 207.200000
    reduced_to: 1
  - symbol: Pb # 48
    coordinates: [  0.550000000000000,  0.437488460146856,  0.708305406571723 ]
    mass: 207.200000
    reduced_to: 1
  - symbol: Pb # 49
    coordinates: [  0.750000000000000,  0.437488460146856,  0.708305406571723 ]
    mass: 207.200000
    reduced_to: 1
  - symbol: Pb # 50
    coordinates: [  0.950000000000000,  0.437488460146856,  0.708305406571723 ]
    mass: 207.200000
    reduced_to: 1
  - symbol: Pb # 51
    coordinates: [  0.150000000000000,  0.687488460146856,  0.708305406571723 ]
    mass: 207.200000
    reduced_to: 1
  - symbol: Pb # 52
    coordinates: [  0.350000000000000,  0.687488460146856,  0.708305406571723 ]
    mass: 207.200000
    reduced_to: 1
  - symbol: Pb # 53
    coordinates: [  0.550000000000000,  0.687488460146856,  0.708305406571723 ]
    mass: 207.200000
    reduced_to: 1
  - symbol: Pb # 54
    coordinates: [  0.750000000000000,  0.687488460146856,  0.708305406571723 ]
    mass: 207.200000
    reduced_to: 1
  - symbol: Pb # 55
    coordinates: [  0.950000000000000,  0.687488460146856,  0.708305406571723 ]
    mass: 207.200000
    reduced_to: 1
  - symbol: Pb # 56
    coordinates: [  0.150000000000000,  0.937488460146856,  0.708305406571723 ]
    mass: 207.200000
    reduced_to: 1
  - symbol: Pb # 57
    coordinates: [  0.350000000000000,  0.937488460146856,  0.708305406571723 ]
    mass: 207.200000
    reduced_to: 1
  - symbol: Pb # 58
    coordinates: [  0.550000000000000,  0.937488460146856,  0.708305406571723 ]
    mass: 207.200000
    reduced_to: 1
  - symbol: Pb # 59
    coordinates: [  0.750000000000000,  0.937488460146856,  0.708305406571723 ]
    mass: 207.200000
    reduced_to: 1
  - symbol: Pb # 60
    coordinates: [  0.950000000000000,  0.937488460146856,  0.708305406571723 ]
    mass: 207.200000
    reduced_to: 1
  - symbol: Pb # 61
    coordinates: [  0.150000000000000,  0.187511539853144,  0.208305406571723 ]
    mass: 207.200000
    reduced_to: 61
  - symbol: Pb # 62
    coordinates: [  0.350000000000000,  0.187511539853144,  0.208305406571723 ]
    mass: 207.200000
    reduced_to: 61
  - symbol: Pb # 63
    coordinates: [  0.550000000000000,  0.187511539853144,  0.208305406571723 ]
    mass: 207.200000
    reduced_to: 61
  - symbol: Pb # 64
    coordinates: [  0.750000000000000,  0.187511539853144,  0.208305406571723 ]
    mass: 207.200000
    reduced_to: 61
  - symbol: Pb # 65
    coordinates: [  0.950000000000000,  0.187511539853144,  0.208305406571723 ]
    mass: 207.200000
    reduced_to: 61
  - symbol: Pb # 66
    coordinates: [  0.150000000000000,  0.437511539853144,  0.208305406571723 ]
    mass: 207.200000
    reduced_to: 61
  - symbol: Pb # 67
    coordinates: [  0.350000000000000,  0.437511539853144,  0.208305406571723 ]
    mass: 207.200000
    reduced_to: 61
  - symbol: Pb # 68
    coordinates: [  0.550000000000000,  0.437511539853144,  0.208305406571723 ]
    mass: 207.200000
    reduced_to: 61
  - symbol: Pb # 69
    coordinates: [  0.750000000000000,  0.437511539853144,  0.208305406571723 ]
    mass: 207.200000
    reduced_to: 61
  - symbol: Pb # 70
    coordinates: [  0.950000000000000,  0.437511539853144,  0.208305406571723 ]
    mass: 207.200000
    reduced_to: 61
  - symbol: Pb # 71
    coordinates: [  0.150000000000000,  0.687511539853144,  0.208305406571723 ]
    mass: 207.200000
    reduced_to: 61
  - symbol: Pb # 72
    coordinates: [  0.350000000000000,  0.687511539853144,  0.208305406571723 ]
    mass: 207.200000
    reduced_to: 61
  - symbol: Pb # 73
    coordinates: [  0.550000000000000,  0.687511539853144,  0.208305406571723 ]
    mass: 207.200000
    reduced_to: 61
  - symbol: Pb # 74
    coordinates: [  0.750000000000000,  0.687511539853144,  0.208305406571723 ]
    mass: 207.200000
    reduced_to: 61
  - symbol: Pb # 75
    coordinates: [  0.950000000000000,  0.687511539853144,  0.208305406571723 ]
    mass: 207.200000
    reduced_to: 61
  - symbol: Pb # 76
    coordinates: [  0.150000000000000,  0.937511539853144,  0.208305406571723 ]
    mass: 207.200000
    reduced_to: 61
  - symbol: Pb # 77
    coordinates: [  0.350000000000000,  0.937511539853144,  0.208305406571723 ]
    mass: 207.200000
    reduced_to: 61
  - symbol: Pb # 78
    coordinates: [  0.550000000000000,  0.937511539853144,  0.208305406571723 ]
    mass: 207.200000
    reduced_to: 61
  - symbol: Pb # 79
    coordinates: [  0.750000000000000,  0.937511539853144,  0.208305406571723 ]
    mass: 207.200000
    reduced_to: 61
  - symbol: Pb # 80
    coordinates: [  0.950000000000000,  0.937511539853144,  0.208305406571723 ]
    mass: 207.200000
    reduced_to: 61
  - symbol: Pb # 81
    coordinates: [  0.150000000000000,  0.187511539853144,  0.541638739905057 ]
    mass: 207.200000
    reduced_to: 61
  - symbol: Pb # 82
    coordinates: [  0.350000000000000,  0.187511539853144,  0.541638739905057 ]
    mass: 207.200000
    reduced_to: 61
  - symbol: Pb # 83
    coordinates: [  0.550000000000000,  0.187511539853144,  0.541638739905057 ]
    mass: 207.200000
    reduced_to: 61
  - symbol: Pb # 84
    coordinates: [  0.750000000000000,  0.187511539853144,  0.541638739905057 ]
    mass: 207.200000
    reduced_to: 61
  - symbol: Pb # 85
    coordinates: [  0.950000000000000,  0.187511539853144,  0.541638739905057 ]
    mass: 207.200000
    reduced_to: 61
  - symbol: Pb # 86
    coordinates: [  0.150000000000000,  0.437511539853144,  0.541638739905057 ]
    mass: 207.200000
    reduced_to: 61
  - symbol: Pb # 87
    coordinates: [  0.350000000000000,  0.437511539853144,  0.541638739905057 ]
    mass: 207.200000
    reduced_to: 61
  - symbol: Pb # 88
    coordinates: [  0.550000000000000,  0.437511539853144,  0.541638739905057 ]
    mass: 207.200000
    reduced_to: 61
  - symbol: Pb # 89
    coordinates: [  0.750000000000000,  0.437511539853144,  0.541638739905057 ]
    mass: 207.200000
    reduced_to: 61
  - symbol: Pb # 90
    coordinates: [  0.950000000000000,  0.437511539853144,  0.541638739905057 ]
    mass: 207.200000
    reduced_to: 61
  - symbol: Pb # 91
    coordinates: [  0.150000000000000,  0.687511539853144,  0.541638739905057 ]
    mass: 207.200000
    reduced_to: 61
  - symbol: Pb # 92
    coordinates: [  0.350000000000000,  0.687511539853144,  0.541638739905057 ]
    mass: 207.200000
    reduced_to: 61
  - symbol: Pb # 93
    coordinates: [  0.550000000000000,  0.687511539853144,  0.541638739905057 ]
    mass: 207.200000
    reduced_to: 61
  - symbol: Pb # 94
    coordinates: [  0.750000000000000,  0.687511539853144,  0.541638739905057 ]
    mass: 207.200000
    reduced_to: 61
  - symbol: Pb # 95
    coordinates: [  0.950000000000000,  0.687511539853144,  0.541638739905057 ]
    mass: 207.200000
    reduced_to: 61
  - symbol: Pb # 96
    coordinates: [  0.150000000000000,  0.937511539853144,  0.541638739905057 ]
    mass: 207.200000
    reduced_to: 61
  - symbol: Pb # 97
    coordinates: [  0.350000000000000,  0.937511539853144,  0.541638739905057 ]
    mass: 207.200000
    reduced_to: 61
  - symbol: Pb # 98
    coordinates: [  0.550000000000000,  0.937511539853144,  0.541638739905057 ]
    mass: 207.200000
    reduced_to: 61
  - symbol: Pb # 99
    coordinates: [  0.750000000000000,  0.937511539853144,  0.541638739905057 ]
    mass: 207.200000
    reduced_to: 61
  - symbol: Pb # 100
    coordinates: [  0.950000000000000,  0.937511539853144,  0.541638739905057 ]
    mass: 207.200000
    reduced_to: 61
  - symbol: Pb # 101
    coordinates: [  0.150000000000000,  0.187511539853144,  0.874972073238390 ]
    mass: 207.200000
    reduced_to: 61
  - symbol: Pb # 102
    coordinates: [  0.350000000000000,  0.187511539853144,  0.874972073238390 ]
    mass: 207.200000
    reduced_to: 61
  - symbol: Pb # 103
    coordinates: [  0.550000000000000,  0.187511539853144,  0.874972073238390 ]
    mass: 207.200000
    reduced_to: 61
  - symbol: Pb # 104
    coordinates: [  0.750000000000000,  0.187511539853144,  0.874972073238390 ]
    mass: 207.200000
    reduced_to: 61
  - symbol: Pb # 105
    coordinates: [  0.950000000000000,  0.187511539853144,  0.874972073238390 ]
    mass: 207.200000
    reduced_to: 61
  - symbol: Pb # 106
    coordinates: [  0.150000000000000,  0.437511539853144,  0.874972073238390 ]
    mass: 207.200000
    reduced_to: 61
  - symbol: Pb # 107
    coordinates: [  0.350000000000000,  0.437511539853144,  0.874972073238390 ]
    mass: 207.200000
    reduced_to: 61
  - symbol: Pb # 108
    coordinates: [  0.550000000000000,  0.437511539853144,  0.874972073238390 ]
    mass: 207.200000
    reduced_to: 61
  - symbol: Pb # 109
    coordinates: [  0.750000000000000,  0.437511539853144,  0.874972073238390 ]
    mass: 207.200000
    reduced_to: 61
  - symbol: Pb # 110
    coordinates: [  0.950000000000000,  0.437511539853144,  0.874972073238390 ]
    mass: 207.200000
    reduced_to: 61
  - symbol: Pb # 111
    coordinates: [  0.150000000000000,  0.687511539853144,  0.874972073238390 ]
    mass: 207.200000
    reduced_to: 61
  - symbol: Pb # 112
    coordinates: [  0.350000000000000,  0.687511539853144,  0.874972073238390 ]
    mass: 207.200000
    reduced_to: 61
  - symbol: Pb # 113
    coordinates: [  0.550000000000000,  0.687511539853144,  0.874972073238390 ]
    mass: 207.200000
    reduced_to: 61
  - symbol: Pb # 114
    coordinates: [  0.750000000000000,  0.687511539853144,  0.874972073238390 ]
    mass: 207.200000
    reduced_to: 61
  - symbol: Pb # 115
    coordinates: [  0.950000000000000,  0.687511539853144,  0.874972073238390 ]
    mass: 207.200000
    reduced_to: 61
  - symbol: Pb # 116
    coordinates: [  0.150000000000000,  0.937511539853144,  0.874972073238390 ]
    mass: 207.200000
    reduced_to: 61
  - symbol: Pb # 117
    coordinates: [  0.350000000000000,  0.937511539853144,  0.874972073238390 ]
    mass: 207.200000
    reduced_to: 61
  - symbol: Pb # 118
    coordinates: [  0.550000000000000,  0.937511539853144,  0.874972073238390 ]
    mass: 207.200000
    reduced_to: 61
  - symbol: Pb # 119
    coordinates: [  0.750000000000000,  0.937511539853144,  0.874972073238390 ]
    mass: 207.200000
    reduced_to: 61
  - symbol: Pb # 120
    coordinates: [  0.950000000000000,  0.937511539853144,  0.874972073238390 ]
    mass: 207.200000
    reduced_to: 61
  - symbol: Pb # 121
    coordinates: [  0.050000000000000,  0.062511539853144,  0.291694593428277 ]
    mass: 207.200000
    reduced_to: 121
  - symbol: Pb # 122
    coordinates: [  0.250000000000000,  0.062511539853144,  0.291694593428277 ]
    mass: 207.200000
    reduced_to: 121
  - symbol: Pb # 123
    coordinates: [  0.450000000000000,  0.062511539853144,  0.291694593428277 ]
    mass: 207.200000
    reduced_to: 121
  - symbol: Pb # 124
    coordinates: [  0.650000000000000,  0.062511539853144,  0.291694593428277 ]
    mass: 207.200000
    reduced_to: 121
  - symbol: Pb # 125
    coordinates: [  0.850000000000000,  0.062511539853144,  0.291694593428277 ]
    mass: 207.200000
    reduced_to: 121
  - symbol: Pb # 126
    coordinates: [  0.050000000000000,  0.312511539853144,  0.291694593428277 ]
    mass: 207.200000
    reduced_to: 121
  - symbol: Pb # 127
    coordinates: [  0.250000000000000,  0.312511539853144,  0.291694593428277 ]
    mass: 207.200000
    reduced_to: 121
  - symbol: Pb # 128
    coordinates: [  0.450000000000000,  0.312511539853144,  0.291694593428277 ]
    mass: 207.200000
    reduced_to: 121
  - symbol: Pb # 129
    coordinates: [  0.650000000000000,  0.312511539853144,  0.291694593428277 ]
    mass: 207.200000
    reduced_to: 121
  - symbol: Pb # 130
    coordinates: [  0.850000000000000,  0.312511539853144,  0.291694593428277 ]
    mass: 207.200000
    reduced_to: 121
  - symbol: Pb # 131
    coordinates: [  0.050000000000000,  0.562511539853144,  0.291694593428277 ]
    mass: 207.200000
    reduced_to: 121
  - symbol: Pb # 132
    coordinates: [  0.250000000000000,  0.562511539853144,  0.291694593428277 ]
    mass: 207.200000
    reduced_to: 121
  - symbol: Pb # 133
    coordinates: [  0.450000000000000,  0.562511539853144,  0.291694593428277 ]
    mass: 207.200000
    reduced_to: 121
  - symbol: Pb # 134
    coordinates: [  0.650000000000000,  0.562511539853144,  0.291694593428277 ]
    mass: 207.200000
    reduced_to: 121
  - symbol: Pb # 135
    coordinates: [  0.850000000000000,  0.562511539853144,  0.291694593428277 ]
    mass: 207.200000
    reduced_to: 121
  - symbol: Pb # 136
    coordinates: [  0.050000000000000,  0.812511539853144,  0.291694593428277 ]
    mass: 207.200000
    reduced_to: 121
  - symbol: Pb # 137
    coordinates: [  0.250000000000000,  0.812511539853144,  0.291694593428277 ]
    mass: 207.200000
    reduced_to: 121
  - symbol: Pb # 138
    coordinates: [  0.450000000000000,  0.812511539853144,  0.291694593428277 ]
    mass: 207.200000
    reduced_to: 121
  - symbol: Pb # 139
    coordinates: [  0.650000000000000,  0.812511539853144,  0.291694593428277 ]
    mass: 207.200000
    reduced_to: 121
  - symbol: Pb # 140
    coordinates: [  0.850000000000000,  0.812511539853144,  0.291694593428277 ]
    mass: 207.200000
    reduced_to: 121
  - symbol: Pb # 141
    coordinates: [  0.050000000000000,  0.062511539853144,  0.625027926761610 ]
    mass: 207.200000
    reduced_to: 121
  - symbol: Pb # 142
    coordinates: [  0.250000000000000,  0.062511539853144,  0.625027926761610 ]
    mass: 207.200000
    reduced_to: 121
  - symbol: Pb # 143
    coordinates: [  0.450000000000000,  0.062511539853144,  0.625027926761610 ]
    mass: 207.200000
    reduced_to: 121
  - symbol: Pb # 144
    coordinates: [  0.650000000000000,  0.062511539853144,  0.625027926761610 ]
    mass: 207.200000
    reduced_to: 121
  - symbol: Pb # 145
    coordinates: [  0.850000000000000,  0.062511539853144,  0.625027926761610 ]
    mass: 207.200000
    reduced_to: 121
  - symbol: Pb # 146
    coordinates: [  0.050000000000000,  0.312511539853144,  0.625027926761610 ]
    mass: 207.200000
    reduced_to: 121
  - symbol: Pb # 147
    coordinates: [  0.250000000000000,  0.312511539853144,  0.625027926761610 ]
    mass: 207.200000
    reduced_to: 121
  - symbol: Pb # 148
    coordinates: [  0.450000000000000,  0.312511539853144,  0.625027926761610 ]
    mass: 207.200000
    reduced_to: 121
  - symbol: Pb # 149
    coordinates: [  0.650000000000000,  0.312511539853144,  0.625027926761610 ]
    mass: 207.200000
    reduced_to: 121
  - symbol: Pb # 150
    coordinates: [  0.850000000000000,  0.312511539853144,  0.625027926761610 ]
    mass: 207.200000
    reduced_to: 121
  - symbol: Pb # 151
    coordinates: [  0.050000000000000,  0.562511539853144,  0.625027926761610 ]
    mass: 207.200000
    reduced_to: 121
  - symbol: Pb # 152
    coordinates: [  0.250000000000000,  0.562511539853144,  0.625027926761610 ]
    mass: 207.200000
    reduced_to: 121
  - symbol: Pb # 153
    coordinates: [  0.450000000000000,  0.562511539853144,  0.625027926761610 ]
    mass: 207.200000
    reduced_to: 121
  - symbol: Pb # 154
    coordinates: [  0.650000000000000,  0.562511539853144,  0.625027926761610 ]
    mass: 207.200000
    reduced_to: 121
  - symbol: Pb # 155
    coordinates: [  0.850000000000000,  0.562511539853144,  0.625027926761610 ]
    mass: 207.200000
    reduced_to: 121
  - symbol: Pb # 156
    coordinates: [  0.050000000000000,  0.812511539853144,  0.625027926761610 ]
    mass: 207.200000
    reduced_to: 121
  - symbol: Pb # 157
    coordinates: [  0.250000000000000,  0.812511539853144,  0.625027926761610 ]
    mass: 207.200000
    reduced_to: 121
  - symbol: Pb # 158
    coordinates: [  0.450000000000000,  0.812511539853144,  0.625027926761610 ]
    mass: 207.200000
    reduced_to: 121
  - symbol: Pb # 159
    coordinates: [  0.650000000000000,  0.812511539853144,  0.625027926761610 ]
    mass: 207.200000
    reduced_to: 121
  - symbol: Pb # 160
    coordinates: [  0.850000000000000,  0.812511539853144,  0.625027926761610 ]
    mass: 207.200000
    reduced_to: 121
  - symbol: Pb # 161
    coordinates: [  0.050000000000000,  0.062511539853144,  0.958361260094943 ]
    mass: 207.200000
    reduced_to: 121
  - symbol: Pb # 162
    coordinates: [  0.250000000000000,  0.062511539853144,  0.958361260094943 ]
    mass: 207.200000
    reduced_to: 121
  - symbol: Pb # 163
    coordinates: [  0.450000000000000,  0.062511539853144,  0.958361260094943 ]
    mass: 207.200000
    reduced_to: 121
  - symbol: Pb # 164
    coordinates: [  0.650000000000000,  0.062511539853144,  0.958361260094943 ]
    mass: 207.200000
    reduced_to: 121
  - symbol: Pb # 165
    coordinates: [  0.850000000000000,  0.062511539853144,  0.958361260094943 ]
    mass: 207.200000
    reduced_to: 121
  - symbol: Pb # 166
    coordinates: [  0.050000000000000,  0.312511539853144,  0.958361260094943 ]
    mass: 207.200000
    reduced_to: 121
  - symbol: Pb # 167
    coordinates: [  0.250000000000000,  0.312511539853144,  0.958361260094943 ]
    mass: 207.200000
    reduced_to: 121
  - symbol: Pb # 168
    coordinates: [  0.450000000000000,  0.312511539853144,  0.958361260094943 ]
    mass: 207.200000
    reduced_to: 121
  - symbol: Pb # 169
    coordinates: [  0.650000000000000,  0.312511539853144,  0.958361260094943 ]
    mass: 207.200000
    reduced_to: 121
  - symbol: Pb # 170
    coordinates: [  0.850000000000000,  0.312511539853144,  0.958361260094943 ]
    mass: 207.200000
    reduced_to: 121
  - symbol: Pb # 171
    coordinates: [  0.050000000000000,  0.562511539853144,  0.958361260094943 ]
    mass: 207.200000
    reduced_to: 121
  - symbol: Pb # 172
    coordinates: [  0.250000000000000,  0.562511539853144,  0.958361260094943 ]
    mass: 207.200000
    reduced_to: 121
  - symbol: Pb # 173
    coordinates: [  0.450000000000000,  0.562511539853144,  0.958361260094943 ]
    mass: 207.200000
    reduced_to: 121
  - symbol: Pb # 174
    coordinates: [  0.650000000000000,  0.562511539853144,  0.958361260094943 ]
    mass: 207.200000
    reduced_to: 121
  - symbol: Pb # 175
    coordinates: [  0.850000000000000,  0.562511539853144,  0.958361260094943 ]
    mass: 207.200000
    reduced_to: 121
  - symbol: Pb # 176
    coordinates: [  0.050000000000000,  0.812511539853144,  0.958361260094943 ]
    mass: 207.200000
    reduced_to: 121
  - symbol: Pb # 177
    coordinates: [  0.250000000000000,  0.812511539853144,  0.958361260094943 ]
    mass: 207.200000
    reduced_to: 121
  - symbol: Pb # 178
    coordinates: [  0.450000000000000,  0.812511539853144,  0.958361260094943 ]
    mass: 207.200000
    reduced_to: 121
  - symbol: Pb # 179
    coordinates: [  0.650000000000000,  0.812511539853144,  0.958361260094943 ]
    mass: 207.200000
    reduced_to: 121
  - symbol: Pb # 180
    coordinates: [  0.850000000000000,  0.812511539853144,  0.958361260094943 ]
    mass: 207.200000
    reduced_to: 121
  - symbol: Pb # 181
    coordinates: [  0.050000000000000,  0.062488460146856,  0.125027926761610 ]
    mass: 207.200000
    reduced_to: 181
  - symbol: Pb # 182
    coordinates: [  0.250000000000000,  0.062488460146856,  0.125027926761610 ]
    mass: 207.200000
    reduced_to: 181
  - symbol: Pb # 183
    coordinates: [  0.450000000000000,  0.062488460146856,  0.125027926761610 ]
    mass: 207.200000
    reduced_to: 181
  - symbol: Pb # 184
    coordinates: [  0.650000000000000,  0.062488460146856,  0.125027926761610 ]
    mass: 207.200000
    reduced_to: 181
  - symbol: Pb # 185
    coordinates: [  0.850000000000000,  0.062488460146856,  0.125027926761610 ]
    mass: 207.200000
    reduced_to: 181
  - symbol: Pb # 186
    coordinates: [  0.050000000000000,  0.312488460146856,  0.125027926761610 ]
    mass: 207.200000
    reduced_to: 181
  - symbol: Pb # 187
    coordinates: [  0.250000000000000,  0.312488460146856,  0.125027926761610 ]
    mass: 207.200000
    reduced_to: 181
  - symbol: Pb # 188
    coordinates: [  0.450000000000000,  0.312488460146856,  0.125027926761610 ]