phonopy:
  version: "2.21.0"
  frequency_unit_conversion_factor: 15.633302
  symmetry_tolerance: 1.00000e-04

space_group:
  type: "P2_1/m"
  number: 11
  Hall_symbol: "-P 2yb"

primitive_matrix:
- [ -1.000000000000000,  0.000000000000000, -0.000000000000000 ]
- [  0.000000000000000,  1.000000000000000,  0.000000000000000 ]
- [  0.000000000000000,  0.000000000000000, -1.000000000000000 ]

supercell_matrix:
- [   0,   5,   0 ]
- [   5,   0,   0 ]
- [  -1,   0,  -3 ]

primitive_cell:
  lattice:
  - [     0.000000000000000,    -4.681212452267518,    -0.067684596529561 ] # a
  - [     4.302138218801617,     0.000000000000000,     0.000000000000000 ] # b
  - [     0.000000000000000,     2.146565578357578,     8.598521808347195 ] # c
  points:
  - symbol: Ca # 1
    coordinates: [  0.403707017112093,  0.750000000000000,  0.291347832017358 ]
    mass: 40.078000
  - symbol: Ca # 2
    coordinates: [  0.596292982887906,  0.250000000000000,  0.708652167982643 ]
    mass: 40.078000
  - symbol: Sb # 3
    coordinates: [  0.771952401557145,  0.750000000000000,  0.013192954618678 ]
    mass: 121.760000
  - symbol: Sb # 4
    coordinates: [  0.228047598442854,  0.250000000000000,  0.986807045381322 ]
    mass: 121.760000
  - symbol: Sb # 5
    coordinates: [  0.054259209539805,  0.750000000000000,  0.622042561491890 ]
    mass: 121.760000
  - symbol: Sb # 6
    coordinates: [  0.945740790460194,  0.250000000000000,  0.377957438508110 ]
    mass: 121.760000
  reciprocal_lattice: # without 2pi
  - [     0.000000000000000,    -0.214393733715624,     0.053522014512164 ] # a*
  - [     0.232442555106599,    -0.000000000000000,     0.000000000000000 ] # b*
  - [    -0.000000000000000,    -0.001687633489622,     0.116720366398724 ] # c*

unit_cell:
  lattice:
  - [     0.000000000000000,     4.681212452267519,     0.067684596529561 ] # a
  - [     4.302138218801617,     0.000000000000000,     0.000000000000000 ] # b
  - [     0.000000000000000,    -2.146565578357579,    -8.598521808347195 ] # c
  points:
  - symbol: Ca # 1
    coordinates: [  0.596292982887907,  0.750000000000000,  0.708652167982643 ]
    mass: 40.078000
    reduced_to: 1
  - symbol: Ca # 2
    coordinates: [  0.403707017112093,  0.250000000000000,  0.291347832017357 ]
    mass: 40.078000
    reduced_to: 2
  - symbol: Sb # 3
    coordinates: [  0.228047598442855,  0.750000000000000,  0.986807045381322 ]
    mass: 121.760000
    reduced_to: 3
  - symbol: Sb # 4
    coordinates: [  0.771952401557145,  0.250000000000000,  0.013192954618678 ]
    mass: 121.760000
    reduced_to: 4
  - symbol: Sb # 5
    coordinates: [  0.945740790460194,  0.750000000000000,  0.377957438508110 ]
    mass: 121.760000
    reduced_to: 5
  - symbol: Sb # 6
    coordinates: [  0.054259209539806,  0.250000000000000,  0.622042561491890 ]
    mass: 121.760000
    reduced_to: 6

supercell:
  lattice:
  - [    21.510691094008084,     2.146565578357579,     8.598521808347195 ] # a
  - [     0.000000000000000,    23.406062261337595,     0.338422982647804 ] # b
  - [     0.000000000000000,     6.439696735072737,    25.795565425041588 ] # c
  points:
  - symbol: Ca # 1
    coordinates: [  0.150000000000000,  0.119258596577581,  0.713782610672453 ]
    mass: 40.078000
    reduced_to: 1
  - symbol: Ca # 2
    coordinates: [  0.150000000000000,  0.319258596577581,  0.713782610672453 ]
    mass: 40.078000
    reduced_to: 1
  - symbol: Ca # 3
    coordinates: [  0.150000000000000,  0.519258596577581,  0.713782610672453 ]
    mass: 40.078000
    reduced_to: 1
  - symbol: Ca # 4
    coordinates: [  0.150000000000000,  0.719258596577581,  0.713782610672453 ]
    mass: 40.078000
    reduced_to: 1
  - symbol: Ca # 5
    coordinates: [  0.150000000000000,  0.919258596577581,  0.713782610672453 ]
    mass: 40.078000
    reduced_to: 1
  - symbol: Ca # 6
    coordinates: [  0.350000000000000,  0.119258596577581,  0.647115944005786 ]
    mass: 40.078000
    reduced_to: 1
  - symbol: Ca # 7
    coordinates: [  0.350000000000000,  0.319258596577581,  0.647115944005786 ]
    mass: 40.078000
    reduced_to: 1
  - symbol: Ca # 8
    coordinates: [  0.350000000000000,  0.519258596577581,  0.647115944005786 ]
    mass: 40.078000
    reduced_to: 1
  - symbol: Ca # 9
    coordinates: [  0.350000000000000,  0.719258596577581,  0.647115944005786 ]
    mass: 40.078000
    reduced_to: 1
  - symbol: Ca # 10
    coordinates: [  0.350000000000000,  0.919258596577581,  0.647115944005786 ]
    mass: 40.078000
    reduced_to: 1
  - symbol: Ca # 11
    coordinates: [  0.550000000000000,  0.119258596577581,  0.580449277339119 ]
    mass: 40.078000
    reduced_to: 1
  - symbol: Ca # 12
    coordinates: [  0.550000000000000,  0.319258596577581,  0.580449277339119 ]
    mass: 40.078000
    reduced_to: 1
  - symbol: Ca # 13
    coordinates: [  0.550000000000000,  0.519258596577581,  0.580449277339119 ]
    mass: 40.078000
    reduced_to: 1
  - symbol: Ca # 14
    coordinates: [  0.550000000000000,  0.719258596577581,  0.580449277339119 ]
    mass: 40.078000
    reduced_to: 1
  - symbol: Ca # 15
    coordinates: [  0.550000000000000,  0.919258596577581,  0.580449277339119 ]
    mass: 40.078000
    reduced_to: 1
  - symbol: Ca # 16
    coordinates: [  0.750000000000000,  0.119258596577581,  0.513782610672452 ]
    mass: 40.078000
    reduced_to: 1
  - symbol: Ca # 17
    coordinates: [  0.750000000000000,  0.319258596577581,  0.513782610672452 ]
    mass: 40.078000
    reduced_to: 1
  - symbol: Ca # 18
    coordinates: [  0.750000000000000,  0.519258596577581,  0.513782610672452 ]
    mass: 40.078000
    reduced_to: 1
  - symbol: Ca # 19
    coordinates: [  0.750000000000000,  0.719258596577581,  0.513782610672452 ]
    mass: 40.078000
    reduced_to: 1
  - symbol: Ca # 20
    coordinates: [  0.750000000000000,  0.919258596577581,  0.513782610672452 ]
    mass: 40.078000
    reduced_to: 1
  - symbol: Ca # 21
    coordinates: [  0.950000000000000,  0.119258596577581,  0.447115944005786 ]
    mass: 40.078000
    reduced_to: 1
  - symbol: Ca # 22
    coordinates: [  0.950000000000000,  0.319258596577581,  0.447115944005786 ]
    mass: 40.078000
    reduced_to: 1
  - symbol: Ca # 23
    coordinates: [  0.950000000000000,  0.519258596577581,  0.447115944005786 ]
    mass: 40.078000
    reduced_to: 1
  - symbol: Ca # 24
    coordinates: [  0.950000000000000,  0.719258596577581,  0.447115944005786 ]
    mass: 40.078000
    reduced_to: 1
  - symbol: Ca # 25
    coordinates: [  0.950000000000000,  0.919258596577581,  0.447115944005786 ]
    mass: 40.078000
    reduced_to: 1
  - symbol: Ca # 26
    coordinates: [  0.150000000000000,  0.119258596577581,  0.380449277339119 ]
    mass: 40.078000
    reduced_to: 1
  - symbol: Ca # 27
    coordinates: [  0.150000000000000,  0.319258596577581,  0.380449277339119 ]
    mass: 40.078000
    reduced_to: 1
  - symbol: Ca # 28
    coordinates: [  0.150000000000000,  0.519258596577581,  0.380449277339119 ]
    mass: 40.078000
    reduced_to: 1
  - symbol: Ca # 29
    coordinates: [  0.150000000000000,  0.719258596577581,  0.380449277339119 ]
    mass: 40.078000
    reduced_to: 1
  - symbol: Ca # 30
    coordinates: [  0.150000000000000,  0.919258596577581,  0.380449277339119 ]
    mass: 40.078000
    reduced_to: 1
  - symbol: Ca # 31
    coordinates: [  0.350000000000000,  0.119258596577581,  0.313782610672452 ]
    mass: 40.078000
    reduced_to: 1
  - symbol: Ca # 32
    coordinates: [  0.350000000000000,  0.319258596577581,  0.313782610672452 ]
    mass: 40.078000
    reduced_to: 1
  - symbol: Ca # 33
    coordinates: [  0.350000000000000,  0.519258596577581,  0.313782610672452 ]
    mass: 40.078000
    reduced_to: 1
  - symbol: Ca # 34
    coordinates: [  0.350000000000000,  0.719258596577581,  0.313782610672452 ]
    mass: 40.078000
    reduced_to: 1
  - symbol: Ca # 35
    coordinates: [  0.350000000000000,  0.919258596577581,  0.313782610672452 ]
    mass: 40.078000
    reduced_to: 1
  - symbol: Ca # 36
    coordinates: [  0.550000000000000,  0.119258596577581,  0.247115944005786 ]
    mass: 40.078000
    reduced_to: 1
  - symbol: Ca # 37
    coordinates: [  0.550000000000000,  0.319258596577581,  0.247115944005786 ]
    mass: 40.078000
    reduced_to: 1
  - symbol: Ca # 38
    coordinates: [  0.550000000000000,  0.519258596577581,  0.247115944005786 ]
    mass: 40.078000
    reduced_to: 1
  - symbol: Ca # 39
    coordinates: [  0.550000000000000,  0.719258596577581,  0.247115944005786 ]
    mass: 40.078000
    reduced_to: 1
  - symbol: Ca # 40
    coordinates: [  0.550000000000000,  0.919258596577581,  0.247115944005786 ]
    mass: 40.078000
    reduced_to: 1
  - symbol: Ca # 41
    coordinates: [  0.750000000000000,  0.119258596577581,  0.180449277339119 ]
    mass: 40.078000
    reduced_to: 1
  - symbol: Ca # 42
    coordinates: [  0.750000000000000,  0.319258596577581,  0.180449277339119 ]
    mass: 40.078000
    reduced_to: 1
  - symbol: Ca # 43
    coordinates: [  0.750000000000000,  0.519258596577581,  0.180449277339119 ]
    mass: 40.078000
    reduced_to: 1
  - symbol: Ca # 44
    coordinates: [  0.750000000000000,  0.719258596577581,  0.180449277339119 ]
    mass: 40.078000
    reduced_to: 1
  - symbol: Ca # 45
    coordinates: [  0.750000000000000,  0.919258596577581,  0.180449277339119 ]
    mass: 40.078000
    reduced_to: 1
  - symbol: Ca # 46
    coordinates: [  0.950000000000000,  0.119258596577581,  0.113782610672452 ]
    mass: 40.078000
    reduced_to: 1
  - symbol: Ca # 47
    coordinates: [  0.950000000000000,  0.319258596577581,  0.113782610672452 ]
    mass: 40.078000
    reduced_to: 1
  - symbol: Ca # 48
    coordinates: [  0.950000000000000,  0.519258596577581,  0.113782610672452 ]
    mass: 40.078000
    reduced_to: 1
  - symbol: Ca # 49
    coordinates: [  0.950000000000000,  0.719258596577581,  0.113782610672452 ]
    mass: 40.078000
    reduced_to: 1
  - symbol: Ca # 50
    coordinates: [  0.950000000000000,  0.919258596577581,  0.113782610672452 ]
    mass: 40.078000
    reduced_to: 1
  - symbol: Ca # 51
    coordinates: [  0.150000000000000,  0.119258596577581,  0.047115944005786 ]
    mass: 40.078000
    reduced_to: 1
  - symbol: Ca # 52
    coordinates: [  0.150000000000000,  0.319258596577581,  0.047115944005786 ]
    mass: 40.078000
    reduced_to: 1
  - symbol: Ca # 53
    coordinates: [  0.150000000000000,  0.519258596577581,  0.047115944005786 ]
    mass: 40.078000
    reduced_to: 1
  - symbol: Ca # 54
    coordinates: [  0.150000000000000,  0.719258596577581,  0.047115944005786 ]
    mass: 40.078000
    reduced_to: 1
  - symbol: Ca # 55
    coordinates: [  0.150000000000000,  0.919258596577581,  0.047115944005786 ]
    mass: 40.078000
    reduced_to: 1
  - symbol: Ca # 56
    coordinates: [  0.350000000000000,  0.119258596577581,  0.980449277339119 ]
    mass: 40.078000
    reduced_to: 1
  - symbol: Ca # 57
    coordinates: [  0.350000000000000,  0.319258596577581,  0.980449277339119 ]
    mass: 40.078000
    reduced_to: 1
  - symbol: Ca # 58
    coordinates: [  0.350000000000000,  0.519258596577581,  0.980449277339119 ]
    mass: 40.078000
    reduced_to: 1
  - symbol: Ca # 59
    coordinates: [  0.350000000000000,  0.719258596577581,  0.980449277339119 ]
    mass: 40.078000
    reduced_to: 1
  - symbol: Ca # 60
    coordinates: [  0.350000000000000,  0.919258596577581,  0.980449277339119 ]
    mass: 40.078000
    reduced_to: 1
  - symbol: Ca # 61
    coordinates: [  0.550000000000000,  0.119258596577581,  0.913782610672452 ]
    mass: 40.078000
    reduced_to: 1
  - symbol: Ca # 62
    coordinates: [  0.550000000000000,  0.319258596577581,  0.913782610672452 ]
    mass: 40.078000
    reduced_to: 1
  - symbol: Ca # 63
    coordinates: [  0.550000000000000,  0.519258596577581,  0.913782610672452 ]
    mass: 40.078000
    reduced_to: 1
  - symbol: Ca # 64
    coordinates: [  0.550000000000000,  0.719258596577581,  0.913782610672452 ]
    mass: 40.078000
    reduced_to: 1
  - symbol: Ca # 65
    coordinates: [  0.550000000000000,  0.919258596577581,  0.913782610672452 ]
    mass: 40.078000
    reduced_to: 1
  - symbol: Ca # 66
    coordinates: [  0.750000000000000,  0.119258596577581,  0.847115944005786 ]
    mass: 40.078000
    reduced_to: 1
  - symbol: Ca # 67
    coordinates: [  0.750000000000000,  0.319258596577581,  0.847115944005786 ]
    mass: 40.078000
    reduced_to: 1
  - symbol: Ca # 68
    coordinates: [  0.750000000000000,  0.519258596577581,  0.847115944005786 ]
    mass: 40.078000
    reduced_to: 1
  - symbol: Ca # 69
    coordinates: [  0.750000000000000,  0.719258596577581,  0.847115944005786 ]
    mass: 40.078000
    reduced_to: 1
  - symbol: Ca # 70
    coordinates: [  0.750000000000000,  0.919258596577581,  0.847115944005786 ]
    mass: 40.078000
    reduced_to: 1
  - symbol: Ca # 71
    coordinates: [  0.950000000000000,  0.119258596577581,  0.780449277339119 ]
    mass: 40.078000
    reduced_to: 1
  - symbol: Ca # 72
    coordinates: [  0.950000000000000,  0.319258596577581,  0.780449277339119 ]
    mass: 40.078000
    reduced_to: 1
  - symbol: Ca # 73
    coordinates: [  0.950000000000000,  0.519258596577581,  0.780449277339119 ]
    mass: 40.078000
    reduced_to: 1
  - symbol: Ca # 74
    coordinates: [  0.950000000000000,  0.719258596577581,  0.780449277339119 ]
    mass: 40.078000
    reduced_to: 1
  - symbol: Ca # 75
    coordinates: [  0.950000000000000,  0.919258596577581,  0.780449277339119 ]
    mass: 40.078000
    reduced_to: 1
  - symbol: Ca # 76
    coordinates: [  0.050000000000000,  0.080741403422419,  0.886217389327548 ]
    mass: 40.078000
    reduced_to: 76
  - symbol: Ca # 77
    coordinates: [  0.050000000000000,  0.280741403422419,  0.886217389327548 ]
    mass: 40.078000
    reduced_to: 76
  - symbol: Ca # 78
    coordinates: [  0.050000000000000,  0.480741403422419,  0.886217389327548 ]
    mass: 40.078000
    reduced_to: 76
  - symbol: Ca # 79
    coordinates: [  0.050000000000000,  0.680741403422419,  0.886217389327548 ]
    mass: 40.078000
    reduced_to: 76
  - symbol: Ca # 80
    coordinates: [  0.050000000000000,  0.880741403422419,  0.886217389327548 ]
    mass: 40.078000
    reduced_to: 76
  - symbol: Ca # 81
    coordinates: [  0.250000000000000,  0.080741403422419,  0.819550722660881 ]
    mass: 40.078000
    reduced_to: 76
  - symbol: Ca # 82
    coordinates: [  0.250000000000000,  0.280741403422419,  0.819550722660881 ]
    mass: 40.078000
    reduced_to: 76
  - symbol: Ca # 83
    coordinates: [  0.250000000000000,  0.480741403422419,  0.819550722660881 ]
    mass: 40.078000
    reduced_to: 76
  - symbol: Ca # 84
    coordinates: [  0.250000000000000,  0.680741403422419,  0.819550722660881 ]
    mass: 40.078000
    reduced_to: 76
  - symbol: Ca # 85
    coordinates: [  0.250000000000000,  0.880741403422419,  0.819550722660881 ]
    mass: 40.078000
    reduced_to: 76
  - symbol: Ca # 86
    coordinates: [  0.450000000000000,  0.080741403422419,  0.752884055994214 ]
    mass: 40.078000
    reduced_to: 76
  - symbol: Ca # 87
    coordinates: [  0.450000000000000,  0.280741403422419,  0.752884055994214 ]
    mass: 40.078000
    reduced_to: 76
  - symbol: Ca # 88
    coordinates: [  0.450000000000000,  0.480741403422419,  0.752884055994214 ]
    mass: 40.078000
    reduced_to: 76
  - symbol: Ca # 89
    coordinates: [  0.450000000000000,  0.680741403422419,  0.752884055994214 ]
    mass: 40.078000
    reduced_to: 76
  - symbol: Ca # 90
    coordinates: [  0.450000000000000,  0.880741403422419,  0.752884055994214 ]
    mass: 40.078000
    reduced_to: 76
  - symbol: Ca # 91
    coordinates: [  0.650000000000000,  0.080741403422419,  0.686217389327548 ]
    mass: 40.078000
    reduced_to: 76
  - symbol: Ca # 92
    coordinates: [  0.650000000000000,  0.280741403422419,  0.686217389327548 ]
    mass: 40.078000
    reduced_to: 76
  - symbol: Ca # 93
    coordinates: [  0.650000000000000,  0.480741403422419,  0.686217389327548 ]
    mass: 40.078000
    reduced_to: 76
  - symbol: Ca # 94
    coordinates: [  0.650000000000000,  0.680741403422419,  0.686217389327548 ]
    mass: 40.078000
    reduced_to: 76
  - symbol: Ca # 95
    coordinates: [  0.650000000000000,  0.880741403422419,  0.686217389327548 ]
    mass: 40.078000
    reduced_to: 76
  - symbol: Ca # 96
    coordinates: [  0.850000000000000,  0.080741403422419,  0.619550722660881 ]
    mass: 40.078000
    reduced_to: 76
  - symbol: Ca # 97
    coordinates: [  0.850000000000000,  0.280741403422419,  0.619550722660881 ]
    mass: 40.078000
    reduced_to: 76
  - symbol: Ca # 98
    coordinates: [  0.850000000000000,  0.480741403422419,  0.619550722660881 ]
    mass: 40.078000
    reduced_to: 76
  - symbol: Ca # 99
    coordinates: [  0.850000000000000,  0.680741403422419,  0.619550722660881 ]
    mass: 40.078000
    reduced_to: 76
  - symbol: Ca # 100
    coordinates: [  0.850000000000000,  0.880741403422419,  0.619550722660881 ]
    mass: 40.078000
    reduced_to: 76
  - symbol: Ca # 101
    coordinates: [  0.050000000000000,  0.080741403422419,  0.552884055994214 ]
    mass: 40.078000
    reduced_to: 76
  - symbol: Ca # 102
    coordinates: [  0.050000000000000,  0.280741403422419,  0.552884055994214 ]
    mass: 40.078000
    reduced_to: 76
  - symbol: Ca # 103
    coordinates: [  0.050000000000000,  0.480741403422419,  0.552884055994214 ]
    mass: 40.078000
    reduced_to: 76
  - symbol: Ca # 104
    coordinates: [  0.050000000000000,  0.680741403422419,  0.552884055994214 ]
    mass: 40.078000
    reduced_to: 76
  - symbol: Ca # 105
    coordinates: [  0.050000000000000,  0.880741403422419,  0.552884055994214 ]
    mass: 40.078000
    reduced_to: 76
  - symbol: Ca # 106
    coordinates: [  0.250000000000000,  0.080741403422419,  0.486217389327548 ]
    mass: 40.078000
    reduced_to: 76
  - symbol: Ca # 107
    coordinates: [  0.250000000000000,  0.280741403422419,  0.486217389327548 ]
    mass: 40.078000
    reduced_to: 76
  - symbol: Ca # 108
    coordinates: [  0.250000000000000,  0.480741403422419,  0.486217389327548 ]
    mass: 40.078000
    reduced_to: 76
  - symbol: Ca # 109
    coordinates: [  0.250000000000000,  0.680741403422419,  0.486217389327548 ]
    mass: 40.078000
    reduced_to: 76
  - symbol: Ca # 110
    coordinates: [  0.250000000000000,  0.880741403422419,  0.486217389327548 ]
    mass: 40.078000
    reduced_to: 76
  - symbol: Ca # 111
    coordinates: [  0.450000000000000,  0.080741403422419,  0.419550722660881 ]
    mass: 40.078000
    reduced_to: 76
  - symbol: Ca # 112
    coordinates: [  0.450000000000000,  0.280741403422419,  0.419550722660881 ]
    mass: 40.078000
    reduced_to: 76
  - symbol: Ca # 113
    coordinates: [  0.450000000000000,  0.480741403422419,  0.419550722660881 ]
    mass: 40.078000
    reduced_to: 76
  - symbol: Ca # 114
    coordinates: [  0.450000000000000,  0.680741403422419,  0.419550722660881 ]
    mass: 40.078000
    reduced_to: 76
  - symbol: Ca # 115
    coordinates: [  0.450000000000000,  0.880741403422419,  0.419550722660881 ]
    mass: 40.078000
    reduced_to: 76
  - symbol: Ca # 116
    coordinates: [  0.650000000000000,  0.080741403422419,  0.352884055994214 ]
    mass: 40.078000
    reduced_to: 76
  - symbol: Ca # 117
    coordinates: [  0.650000000000000,  0.280741403422419,  0.352884055994214 ]
    mass: 40.078000
    reduced_to: 76
  - symbol: Ca # 118
    coordinates: [  0.650000000000000,  0.480741403422419,  0.352884055994214 ]
    mass: 40.078000
    reduced_to: 76
  - symbol: Ca # 119
    coordinates: [  0.650000000000000,  0.680741403422419,  0.352884055994214 ]
    mass: 40.078000
    reduced_to: 76
  - symbol: Ca # 120
    coordinates: [  0.650000000000000,  0.880741403422419,  0.352884055994214 ]
    mass: 40.078000
    reduced_to: 76
  - symbol: Ca # 121
    coordinates: [  0.850000000000000,  0.080741403422419,  0.286217389327548 ]
    mass: 40.078000
    reduced_to: 76
  - symbol: Ca # 122
    coordinates: [  0.850000000000000,  0.280741403422419,  0.286217389327548 ]
    mass: 40.078000
    reduced_to: 76
  - symbol: Ca # 123
    coordinates: [  0.850000000000000,  0.480741403422419,  0.286217389327548 ]
    mass: 40.078000
    reduced_to: 76
  - symbol: Ca # 124
    coordinates: [  0.850000000000000,  0.680741403422419,  0.286217389327548 ]
    mass: 40.078000
    reduced_to: 76
  - symbol: Ca # 125
    coordinates: [  0.850000000000000,  0.880741403422419,  0.286217389327548 ]
    mass: 40.078000
    reduced_to: 76
  - symbol: Ca # 126
    coordinates: [  0.050000000000000,  0.080741403422419,  0.219550722660881 ]
    mass: 40.078000
    reduced_to: 76
  - symbol: Ca # 127
    coordinates: [  0.050000000000000,  0.280741403422419,  0.219550722660881 ]
    mass: 40.078000
    reduced_to: 76
  - symbol: Ca # 128
    coordinates: [  0.050000000000000,  0.480741403422419,  0.219550722660881 ]
    mass: 40.078000
    reduced_to: 76
  - symbol: Ca # 129
    coordinates: [  0.050000000000000,  0.680741403422419,  0.219550722660881 ]
    mass: 40.078000
    reduced_to: 76
  - symbol: Ca # 130
    coordinates: [  0.050000000000000,  0.880741403422419,  0.219550722660881 ]
    mass: 40.078000
    reduced_to: 76
  - symbol: Ca # 131
    coordinates: [  0.250000000000000,  0.080741403422419,  0.152884055994214 ]
    mass: 40.078000
    reduced_to: 76
  - symbol: Ca # 132
    coordinates: [  0.250000000000000,  0.280741403422419,  0.152884055994214 ]
    mass: 40.078000
    reduced_to: 76
  - symbol: Ca # 133
    coordinates: [  0.250000000000000,  0.480741403422419,  0.152884055994214 ]
    mass: 40.078000
    reduced_to: 76
  - symbol: Ca # 134
    coordinates: [  0.250000000000000,  0.680741403422419,  0.152884055994214 ]
    mass: 40.078000
    reduced_to: 76
  - symbol: Ca # 135
    coordinates: [  0.250000000000000,  0.880741403422419,  0.152884055994214 ]
    mass: 40.078000
    reduced_to: 76
  - symbol: Ca # 136
    coordinates: [  0.450000000000000,  0.080741403422419,  0.086217389327548 ]
    mass: 40.078000
    reduced_to: 76
  - symbol: Ca # 137
    coordinates: [  0.450000000000000,  0.280741403422419,  0.086217389327548 ]
    mass: 40.078000
    reduced_to: 76
  - symbol: Ca # 138
    coordinates: [  0.450000000000000,  0.480741403422419,  0.086217389327548 ]
    mass: 40.078000
    reduced_to: 76
  - symbol: Ca # 139
    coordinates: [  0.450000000000000,  0.680741403422419,  0.086217389327548 ]
    mass: 40.078000
    reduced_to: 76
  - symbol: Ca # 140
    coordinates: [  0.450000000000000,  0.880741403422419,  0.086217389327548 ]
    mass: 40.078000
    reduced_to: 76
  - symbol: Ca # 141
    coordinates: [  0.650000000000000,  0.080741403422419,  0.019550722660881 ]
    mass: 40.078000
    reduced_to: 76
  - symbol: Ca # 142
    coordinates: [  0.650000000000000,  0.280741403422419,  0.019550722660881 ]
    mass: 40.078000
    reduced_to: 76
  - symbol: Ca # 143
    coordinates: [  0.650000000000000,  0.480741403422419,  0.019550722660881 ]
    mass: 40.078000
    reduced_to: 76
  - symbol: Ca # 144
    coordinates: [  0.650000000000000,  0.680741403422419,  0.019550722660881 ]
    mass: 40.078000
    reduced_to: 76
  - symbol: Ca # 145
    coordinates: [  0.650000000000000,  0.880741403422419,  0.019550722660881 ]
    mass: 40.078000
    reduced_to: 76
  - symbol: Ca # 146
    coordinates: [  0.850000000000000,  0.080741403422419,  0.952884055994214 ]
    mass: 40.078000
    reduced_to: 76
  - symbol: Ca # 147
    coordinates: [  0.850000000000000,  0.280741403422419,  0.952884055994214 ]
    mass: 40.078000
    reduced_to: 76
  - symbol: Ca # 148
    coordinates: [  0.850000000000000,  0.480741403422419,  0.952884055994214 ]
    mass: 40.078000
    reduced_to: 76
  - symbol: Ca # 149
    coordinates: [  0.850000000000000,  0.680741403422419,  0.952884055994214 ]
    mass: 40.078000
    reduced_to: 76
  - symbol: Ca # 150
    coordinates: [  0.850000000000000,  0.880741403422419,  0.952884055994214 ]
    mass: 40.078000
    reduced_to: 76
  - symbol: Sb # 151
    coordinates: [  0.150000000000000,  0.045609519688571,  0.621064318206226 ]
    mass: 121.760000
    reduced_to: 151
  - symbol: Sb # 152
    coordinates: [  0.150000000000000,  0.245609519688571,  0.621064318206226 ]
    mass: 121.760000
    reduced_to: 151
  - symbol: Sb # 153
    coordinates: [  0.150000000000000,  0.445609519688571,  0.621064318206226 ]
    mass: 121.760000
    reduced_to: 151
  - symbol: Sb # 154
    coordinates: [  0.150000000000000,  0.645609519688571,  0.621064318206226 ]
    mass: 121.760000
    reduced_to: 151
  - symbol: Sb # 155
    coordinates: [  0.150000000000000,  0.845609519688571,  0.621064318206226 ]
    mass: 121.760000
    reduced_to: 151
  - symbol: Sb # 156
    coordinates: [  0.350000000000000,  0.045609519688571,  0.554397651539559 ]
    mass: 121.760000
    reduced_to: 151
  - symbol: Sb # 157
    coordinates: [  0.350000000000000,  0.245609519688571,  0.554397651539559 ]
    mass: 121.760000
    reduced_to: 151
  - symbol: Sb # 158
    coordinates: [  0.350000000000000,  0.445609519688571,  0.554397651539559 ]
    mass: 121.760000
    reduced_to: 151
  - symbol: Sb # 159
    coordinates: [  0.350000000000000,  0.645609519688571,  0.554397651539559 ]
    mass: 121.760000
    reduced_to: 151
  - symbol: Sb # 160
    coordinates: [  0.350000000000000,  0.845609519688571,  0.554397651539559 ]
    mass: 121.760000
    reduced_to: 151
  - symbol: Sb # 161
    coordinates: [  0.550000000000000,  0.045609519688571,  0.487730984872893 ]
    mass: 121.760000
    reduced_to: 151
  - symbol: Sb # 162
    coordinates: [  0.550000000000000,  0.245609519688571,  0.487730984872893 ]
    mass: 121.760000
    reduced_to: 151
  - symbol: Sb # 163
    coordinates: [  0.550000000000000,  0.445609519688571,  0.487730984872893 ]
    mass: 121.760000
    reduced_to: 151
  - symbol: Sb # 164
    coordinates: [  0.550000000000000,  0.645609519688571,  0.487730984872893 ]
    mass: 121.760000
    reduced_to: 151
  - symbol: Sb # 165
    coordinates: [  0.550000000000000,  0.845609519688571,  0.487730984872893 ]
    mass: 121.760000
    reduced_to: 151
  - symbol: Sb # 166
    coordinates: [  0.750000000000000,  0.045609519688571,  0.421064318206226 ]
    mass: 121.760000
    reduced_to: 151
  - symbol: Sb # 167
    coordinates: [  0.750000000000000,  0.245609519688571,  0.421064318206226 ]
    mass: 121.760000
    reduced_to: 151
  - symbol: Sb # 168
    coordinates: [  0.750000000000000,  0.445609519688571,  0.421064318206226 ]
    mass: 121.760000
    reduced_to: 151
  - symbol: Sb # 169
    coordinates: [  0.750000000000000,  0.645609519688571,  0.421064318206226 ]
    mass: 121.760000
    reduced_to: 151
  - symbol: Sb # 170
    coordinates: [  0.750000000000000,  0.845609519688571,  0.421064318206226 ]
    mass: 121.760000
    reduced_to: 151
  - symbol: Sb # 171
    coordinates: [  0.950000000000000,  0.045609519688571,  0.354397651539559 ]
    mass: 121.760000
    reduced_to: 151
  - symbol: Sb # 172
    coordinates: [  0.950000000000000,  0.245609519688571,  0.354397651539559 ]
    mass: 121.760000
    reduced_to: 151
  - symbol: Sb # 173
    coordinates: [  0.950000000000000,  0.445609519688571,  0.354397651539559 ]
    mass: 121.760000
    reduced_to: 151
  - symbol: Sb # 174
    coordinates: [  0.950000000000000,  0.645609519688571,  0.354397651539559 ]
    mass: 121.760000
    reduced_to: 151
  - symbol: Sb # 175
    coordinates: [  0.950000000000000,  0.845609519688571,  0.354397651539559 ]
    mass: 121.760000
    reduced_to: 151
  - symbol: Sb # 176
    coordinates: [  0.150000000000000,  0.045609519688571,  0.287730984872893 ]
    mass: 121.760000
    reduced_to: 151
  - symbol: Sb # 177
    coordinates: [  0.150000000000000,  0.245609519688571,  0.287730984872893 ]
    mass: 121.760000
    reduced_to: 151
  - symbol: Sb # 178
    coordinates: [  0.150000000000000,  0.445609519688571,  0.287730984872893 ]
    mass: 121.760000
    reduced_to: 151
  - symbol: Sb # 179
    coordinates: [  0.150000000000000,  0.645609519688571,  0.287730984872893 ]
    mass: 121.760000
    reduced_to: 151
  - symbol: Sb # 180
    coordinates: [  0.150000000000000,  0.845609519688571,  0.287730984872893 ]
    mass: 121.760000
    reduced_to: 151
  - symbol: Sb # 181
    coordinates: [  0.350000000000000,  0.045609519688571,  0.221064318206226 ]
    mass: 121.760000
    reduced_to: 151
  - symbol: Sb # 182
    coordinates: [  0.350000000000000,  0.245609519688571,  0.221064318206226 ]
    mass: 121.760000
    reduced_to: 151
  - symbol: Sb # 183
    coordinates: [  0.350000000000000,  0.445609519688571,  0.221064318206226 ]
    mass: 121.760000
    reduced_to: 151
  - symbol: Sb # 184
    coordinates: [  0.350000000000000,  0.645609519688571,  0.221064318206226 ]
    mass: 121.760000
    reduced_to: 151
  - symbol: Sb # 185
    coordinates: [  0.350000000000000,  0.845609519688571,  0.221064318206226 ]
    mass: 121.760000
    reduced_to: 151
  - symbol: Sb # 186
    coordinates: [  0.550000000000000,  0.045609519688571,  0.154397651539559 ]
    mass: 121.760000
    reduced_to: 151
  - symbol: Sb # 187
    coordinates: [  0.550000000000000,  0.245609519688571,  0.154397651539559 ]
    mass: 121.760000
    reduced_to: 151
  - symbol: Sb # 188
    coordinates: [  0.550000000000000,  0.445609519688571,  0.154397651539559 ]
    mass: 121.760000
    reduced_to: 151
  - symbol: Sb # 189
    coordinates: [  0.550000000000000,  0.645609519688571,  0.154397651539559 ]
    mass: 121.760000
    reduced_to: 151
  - symbol: Sb # 190
    coordinates: [  0.550000000000000,  0.845609519688571,  0.154397651539559 ]
    mass: 121.760000
    reduced_to: 151
  - symbol: Sb # 191
    coordinates: [  0.750000000000000,  0.045609519688571,  0.087730984872893 ]
    mass: 121.760000
    reduced_to: 151
  - symbol: Sb # 192
    coordinates: [  0.750000000000000,  0.245609519688571,  0.087730984872893 ]
    mass: 121.760000
    reduced_to: 151
  - symbol: Sb # 193
    coordinates: [  0.750000000000000,  0.445609519688571,  0.087730984872893 ]