phonopy:
  version: "2.27.0"
  frequency_unit_conversion_factor: 15.633302
  symmetry_tolerance: 1.00000e-04

space_group:
  type: "I4/mcm"
  number: 140
  Hall_symbol: "-I 4 2c"

primitive_matrix:
- [ -0.500000000000000,  0.500000000000000,  0.500000000000000 ]
- [  0.500000000000000, -0.500000000000000,  0.500000000000000 ]
- [  0.500000000000000,  0.500000000000000, -0.500000000000000 ]

supercell_matrix:
- [   4,   0,   0 ]
- [   0,   4,   0 ]
- [   0,   0,   3 ]

primitive_cell:
  lattice:
  - [    -3.231312500679935,     3.231312500679917,     3.960567740230603 ] # a
  - [     3.231312500679935,    -3.231312500679919,     3.960567740230604 ] # b
  - [     3.231312500679935,     3.231312500679919,    -3.960567740230603 ] # c
  points:
  - symbol: Pb # 1
    coordinates: [  0.250000000000000,  0.250000000000000,  0.000000000000005 ]
    mass: 207.200000
  - symbol: Pb # 2
    coordinates: [  0.750000000000000,  0.749999999999998,  0.000000000000004 ]
    mass: 207.200000
  - symbol: Se # 3
    coordinates: [  0.631605671291465,  0.131605671291465,  0.763211342582937 ]
    mass: 78.960000
  - symbol: Se # 4
    coordinates: [  0.368394328708534,  0.868394328708533,  0.236788657417071 ]
    mass: 78.960000
  - symbol: Se # 5
    coordinates: [  0.868394328708534,  0.631605671291466,  0.500000000000004 ]
    mass: 78.960000
  - symbol: Se # 6
    coordinates: [  0.131605671291465,  0.368394328708532,  0.500000000000004 ]
    mass: 78.960000
  reciprocal_lattice: # without 2pi
  - [    -0.000000000000000,     0.154735885153414,     0.126244526743251 ] # a*
  - [     0.154735885153414,     0.000000000000000,     0.126244526743251 ] # b*
  - [     0.154735885153414,     0.154735885153414,     0.000000000000000 ] # c*

unit_cell:
  lattice:
  - [     6.462625001359871,    -0.000000000000000,     0.000000000000000 ] # a
  - [     0.000000000000000,     6.462625001359834,    -0.000000000000000 ] # b
  - [    -0.000000000000000,    -0.000000000000002,     7.921135480461205 ] # c
  points:
  - symbol: Pb # 1
    coordinates: [  0.000000000000003,  0.000000000000003,  0.249999999999997 ]
    mass: 207.200000
    reduced_to: 1
  - symbol: Pb # 2
    coordinates: [  0.000000000000001,  0.000000000000003,  0.749999999999997 ]
    mass: 207.200000
    reduced_to: 2
  - symbol: Pb # 3
    coordinates: [  0.500000000000002,  0.500000000000003,  0.749999999999998 ]
    mass: 207.200000
    reduced_to: 1
  - symbol: Pb # 4
    coordinates: [  0.500000000000001,  0.500000000000003,  0.249999999999997 ]
    mass: 207.200000
    reduced_to: 2
  - symbol: Se # 5
    coordinates: [  0.131605671291468,  0.631605671291469, -0.000000000000003 ]
    mass: 78.960000
    reduced_to: 5
  - symbol: Se # 6
    coordinates: [  0.368394328708535,  0.868394328708536,  0.499999999999998 ]
    mass: 78.960000
    reduced_to: 6
  - symbol: Se # 7
    coordinates: [  0.131605671291468,  0.368394328708536,  0.499999999999998 ]
    mass: 78.960000
    reduced_to: 7
  - symbol: Se # 8
    coordinates: [  0.368394328708535,  0.131605671291469, -0.000000000000003 ]
    mass: 78.960000
    reduced_to: 8
  - symbol: Se # 9
    coordinates: [  0.631605671291468,  0.131605671291469,  0.499999999999997 ]
    mass: 78.960000
    reduced_to: 5
  - symbol: Se # 10
    coordinates: [  0.868394328708535,  0.368394328708536, -0.000000000000002 ]
    mass: 78.960000
    reduced_to: 6
  - symbol: Se # 11
    coordinates: [  0.631605671291468,  0.868394328708536, -0.000000000000002 ]
    mass: 78.960000
    reduced_to: 7
  - symbol: Se # 12
    coordinates: [  0.868394328708536,  0.631605671291469,  0.499999999999997 ]
    mass: 78.960000
    reduced_to: 8

supercell:
  lattice:
  - [    25.850500005439482,    -0.000000000000000,     0.000000000000002 ] # a
  - [     0.000000000000000,    25.850500005439336,    -0.000000000000002 ] # b
  - [    -0.000000000000001,    -0.000000000000006,    23.763406441383616 ] # c
  points:
  - symbol: Pb # 1
    coordinates: [  0.000000000000001,  0.000000000000001,  0.083333333333332 ]
    mass: 207.200000
    reduced_to: 1
  - symbol: Pb # 2
    coordinates: [  0.250000000000001,  0.000000000000001,  0.083333333333332 ]
    mass: 207.200000
    reduced_to: 1
  - symbol: Pb # 3
    coordinates: [  0.500000000000001,  0.000000000000001,  0.083333333333332 ]
    mass: 207.200000
    reduced_to: 1
  - symbol: Pb # 4
    coordinates: [  0.750000000000001,  0.000000000000001,  0.083333333333332 ]
    mass: 207.200000
    reduced_to: 1
  - symbol: Pb # 5
    coordinates: [  0.000000000000001,  0.250000000000001,  0.083333333333332 ]
    mass: 207.200000
    reduced_to: 1
  - symbol: Pb # 6
    coordinates: [  0.250000000000001,  0.250000000000001,  0.083333333333332 ]
    mass: 207.200000
    reduced_to: 1
  - symbol: Pb # 7
    coordinates: [  0.500000000000001,  0.250000000000001,  0.083333333333332 ]
    mass: 207.200000
    reduced_to: 1
  - symbol: Pb # 8
    coordinates: [  0.750000000000001,  0.250000000000001,  0.083333333333332 ]
    mass: 207.200000
    reduced_to: 1
  - symbol: Pb # 9
    coordinates: [  0.000000000000001,  0.500000000000001,  0.083333333333332 ]
    mass: 207.200000
    reduced_to: 1
  - symbol: Pb # 10
    coordinates: [  0.250000000000001,  0.500000000000001,  0.083333333333332 ]
    mass: 207.200000
    reduced_to: 1
  - symbol: Pb # 11
    coordinates: [  0.500000000000001,  0.500000000000001,  0.083333333333332 ]
    mass: 207.200000
    reduced_to: 1
  - symbol: Pb # 12
    coordinates: [  0.750000000000001,  0.500000000000001,  0.083333333333332 ]
    mass: 207.200000
    reduced_to: 1
  - symbol: Pb # 13
    coordinates: [  0.000000000000001,  0.750000000000001,  0.083333333333332 ]
    mass: 207.200000
    reduced_to: 1
  - symbol: Pb # 14
    coordinates: [  0.250000000000001,  0.750000000000001,  0.083333333333332 ]
    mass: 207.200000
    reduced_to: 1
  - symbol: Pb # 15
    coordinates: [  0.500000000000001,  0.750000000000001,  0.083333333333332 ]
    mass: 207.200000
    reduced_to: 1
  - symbol: Pb # 16
    coordinates: [  0.750000000000001,  0.750000000000001,  0.083333333333332 ]
    mass: 207.200000
    reduced_to: 1
  - symbol: Pb # 17
    coordinates: [  0.000000000000001,  0.000000000000001,  0.416666666666666 ]
    mass: 207.200000
    reduced_to: 1
  - symbol: Pb # 18
    coordinates: [  0.250000000000001,  0.000000000000001,  0.416666666666666 ]
    mass: 207.200000
    reduced_to: 1
  - symbol: Pb # 19
    coordinates: [  0.500000000000001,  0.000000000000001,  0.416666666666666 ]
    mass: 207.200000
    reduced_to: 1
  - symbol: Pb # 20
    coordinates: [  0.750000000000001,  0.000000000000001,  0.416666666666666 ]
    mass: 207.200000
    reduced_to: 1
  - symbol: Pb # 21
    coordinates: [  0.000000000000001,  0.250000000000001,  0.416666666666666 ]
    mass: 207.200000
    reduced_to: 1
  - symbol: Pb # 22
    coordinates: [  0.250000000000001,  0.250000000000001,  0.416666666666666 ]
    mass: 207.200000
    reduced_to: 1
  - symbol: Pb # 23
    coordinates: [  0.500000000000001,  0.250000000000001,  0.416666666666666 ]
    mass: 207.200000
    reduced_to: 1
  - symbol: Pb # 24
    coordinates: [  0.750000000000001,  0.250000000000001,  0.416666666666666 ]
    mass: 207.200000
    reduced_to: 1
  - symbol: Pb # 25
    coordinates: [  0.000000000000001,  0.500000000000001,  0.416666666666666 ]
    mass: 207.200000
    reduced_to: 1
  - symbol: Pb # 26
    coordinates: [  0.250000000000001,  0.500000000000001,  0.416666666666666 ]
    mass: 207.200000
    reduced_to: 1
  - symbol: Pb # 27
    coordinates: [  0.500000000000001,  0.500000000000001,  0.416666666666666 ]
    mass: 207.200000
    reduced_to: 1
  - symbol: Pb # 28
    coordinates: [  0.750000000000001,  0.500000000000001,  0.416666666666666 ]
    mass: 207.200000
    reduced_to: 1
  - symbol: Pb # 29
    coordinates: [  0.000000000000001,  0.750000000000001,  0.416666666666666 ]
    mass: 207.200000
    reduced_to: 1
  - symbol: Pb # 30
    coordinates: [  0.250000000000001,  0.750000000000001,  0.416666666666666 ]
    mass: 207.200000
    reduced_to: 1
  - symbol: Pb # 31
    coordinates: [  0.500000000000001,  0.750000000000001,  0.416666666666666 ]
    mass: 207.200000
    reduced_to: 1
  - symbol: Pb # 32
    coordinates: [  0.750000000000001,  0.750000000000001,  0.416666666666666 ]
    mass: 207.200000
    reduced_to: 1
  - symbol: Pb # 33
    coordinates: [  0.000000000000001,  0.000000000000001,  0.749999999999999 ]
    mass: 207.200000
    reduced_to: 1
  - symbol: Pb # 34
    coordinates: [  0.250000000000001,  0.000000000000001,  0.749999999999999 ]
    mass: 207.200000
    reduced_to: 1
  - symbol: Pb # 35
    coordinates: [  0.500000000000001,  0.000000000000001,  0.749999999999999 ]
    mass: 207.200000
    reduced_to: 1
  - symbol: Pb # 36
    coordinates: [  0.750000000000001,  0.000000000000001,  0.749999999999999 ]
    mass: 207.200000
    reduced_to: 1
  - symbol: Pb # 37
    coordinates: [  0.000000000000001,  0.250000000000001,  0.749999999999999 ]
    mass: 207.200000
    reduced_to: 1
  - symbol: Pb # 38
    coordinates: [  0.250000000000001,  0.250000000000001,  0.749999999999999 ]
    mass: 207.200000
    reduced_to: 1
  - symbol: Pb # 39
    coordinates: [  0.500000000000001,  0.250000000000001,  0.749999999999999 ]
    mass: 207.200000
    reduced_to: 1
  - symbol: Pb # 40
    coordinates: [  0.750000000000001,  0.250000000000001,  0.749999999999999 ]
    mass: 207.200000
    reduced_to: 1
  - symbol: Pb # 41
    coordinates: [  0.000000000000001,  0.500000000000001,  0.749999999999999 ]
    mass: 207.200000
    reduced_to: 1
  - symbol: Pb # 42
    coordinates: [  0.250000000000001,  0.500000000000001,  0.749999999999999 ]
    mass: 207.200000
    reduced_to: 1
  - symbol: Pb # 43
    coordinates: [  0.500000000000001,  0.500000000000001,  0.749999999999999 ]
    mass: 207.200000
    reduced_to: 1
  - symbol: Pb # 44
    coordinates: [  0.750000000000001,  0.500000000000001,  0.749999999999999 ]
    mass: 207.200000
    reduced_to: 1
  - symbol: Pb # 45
    coordinates: [  0.000000000000001,  0.750000000000001,  0.749999999999999 ]
    mass: 207.200000
    reduced_to: 1
  - symbol: Pb # 46
    coordinates: [  0.250000000000001,  0.750000000000001,  0.749999999999999 ]
    mass: 207.200000
    reduced_to: 1
  - symbol: Pb # 47
    coordinates: [  0.500000000000001,  0.750000000000001,  0.749999999999999 ]
    mass: 207.200000
    reduced_to: 1
  - symbol: Pb # 48
    coordinates: [  0.750000000000001,  0.750000000000001,  0.749999999999999 ]
    mass: 207.200000
    reduced_to: 1
  - symbol: Pb # 49
    coordinates: [  0.000000000000000,  0.000000000000001,  0.249999999999999 ]
    mass: 207.200000
    reduced_to: 49
  - symbol: Pb # 50
    coordinates: [  0.250000000000000,  0.000000000000001,  0.249999999999999 ]
    mass: 207.200000
    reduced_to: 49
  - symbol: Pb # 51
    coordinates: [  0.500000000000000,  0.000000000000001,  0.249999999999999 ]
    mass: 207.200000
    reduced_to: 49
  - symbol: Pb # 52
    coordinates: [  0.750000000000000,  0.000000000000001,  0.249999999999999 ]
    mass: 207.200000
    reduced_to: 49
  - symbol: Pb # 53
    coordinates: [  0.000000000000000,  0.250000000000001,  0.249999999999999 ]
    mass: 207.200000
    reduced_to: 49
  - symbol: Pb # 54
    coordinates: [  0.250000000000000,  0.250000000000001,  0.249999999999999 ]
    mass: 207.200000
    reduced_to: 49
  - symbol: Pb # 55
    coordinates: [  0.500000000000000,  0.250000000000001,  0.249999999999999 ]
    mass: 207.200000
    reduced_to: 49
  - symbol: Pb # 56
    coordinates: [  0.750000000000000,  0.250000000000001,  0.249999999999999 ]
    mass: 207.200000
    reduced_to: 49
  - symbol: Pb # 57
    coordinates: [  0.000000000000000,  0.500000000000001,  0.249999999999999 ]
    mass: 207.200000
    reduced_to: 49
  - symbol: Pb # 58
    coordinates: [  0.250000000000000,  0.500000000000001,  0.249999999999999 ]
    mass: 207.200000
    reduced_to: 49
  - symbol: Pb # 59
    coordinates: [  0.500000000000000,  0.500000000000001,  0.249999999999999 ]
    mass: 207.200000
    reduced_to: 49
  - symbol: Pb # 60
    coordinates: [  0.750000000000000,  0.500000000000001,  0.249999999999999 ]
    mass: 207.200000
    reduced_to: 49
  - symbol: Pb # 61
    coordinates: [  0.000000000000000,  0.750000000000001,  0.249999999999999 ]
    mass: 207.200000
    reduced_to: 49
  - symbol: Pb # 62
    coordinates: [  0.250000000000000,  0.750000000000001,  0.249999999999999 ]
    mass: 207.200000
    reduced_to: 49
  - symbol: Pb # 63
    coordinates: [  0.500000000000000,  0.750000000000001,  0.249999999999999 ]
    mass: 207.200000
    reduced_to: 49
  - symbol: Pb # 64
    coordinates: [  0.750000000000000,  0.750000000000001,  0.249999999999999 ]
    mass: 207.200000
    reduced_to: 49
  - symbol: Pb # 65
    coordinates: [  0.000000000000000,  0.000000000000001,  0.583333333333332 ]
    mass: 207.200000
    reduced_to: 49
  - symbol: Pb # 66
    coordinates: [  0.250000000000000,  0.000000000000001,  0.583333333333332 ]
    mass: 207.200000
    reduced_to: 49
  - symbol: Pb # 67
    coordinates: [  0.500000000000000,  0.000000000000001,  0.583333333333332 ]
    mass: 207.200000
    reduced_to: 49
  - symbol: Pb # 68
    coordinates: [  0.750000000000000,  0.000000000000001,  0.583333333333332 ]
    mass: 207.200000
    reduced_to: 49
  - symbol: Pb # 69
    coordinates: [  0.000000000000000,  0.250000000000001,  0.583333333333332 ]
    mass: 207.200000
    reduced_to: 49
  - symbol: Pb # 70
    coordinates: [  0.250000000000000,  0.250000000000001,  0.583333333333332 ]
    mass: 207.200000
    reduced_to: 49
  - symbol: Pb # 71
    coordinates: [  0.500000000000000,  0.250000000000001,  0.583333333333332 ]
    mass: 207.200000
    reduced_to: 49
  - symbol: Pb # 72
    coordinates: [  0.750000000000000,  0.250000000000001,  0.583333333333332 ]
    mass: 207.200000
    reduced_to: 49
  - symbol: Pb # 73
    coordinates: [  0.000000000000000,  0.500000000000001,  0.583333333333332 ]
    mass: 207.200000
    reduced_to: 49
  - symbol: Pb # 74
    coordinates: [  0.250000000000000,  0.500000000000001,  0.583333333333332 ]
    mass: 207.200000
    reduced_to: 49
  - symbol: Pb # 75
    coordinates: [  0.500000000000000,  0.500000000000001,  0.583333333333332 ]
    mass: 207.200000
    reduced_to: 49
  - symbol: Pb # 76
    coordinates: [  0.750000000000000,  0.500000000000001,  0.583333333333332 ]
    mass: 207.200000
    reduced_to: 49
  - symbol: Pb # 77
    coordinates: [  0.000000000000000,  0.750000000000001,  0.583333333333332 ]
    mass: 207.200000
    reduced_to: 49
  - symbol: Pb # 78
    coordinates: [  0.250000000000000,  0.750000000000001,  0.583333333333332 ]
    mass: 207.200000
    reduced_to: 49
  - symbol: Pb # 79
    coordinates: [  0.500000000000000,  0.750000000000001,  0.583333333333332 ]
    mass: 207.200000
    reduced_to: 49
  - symbol: Pb # 80
    coordinates: [  0.750000000000000,  0.750000000000001,  0.583333333333332 ]
    mass: 207.200000
    reduced_to: 49
  - symbol: Pb # 81
    coordinates: [  0.000000000000000,  0.000000000000001,  0.916666666666666 ]
    mass: 207.200000
    reduced_to: 49
  - symbol: Pb # 82
    coordinates: [  0.250000000000000,  0.000000000000001,  0.916666666666666 ]
    mass: 207.200000
    reduced_to: 49
  - symbol: Pb # 83
    coordinates: [  0.500000000000000,  0.000000000000001,  0.916666666666666 ]
    mass: 207.200000
    reduced_to: 49
  - symbol: Pb # 84
    coordinates: [  0.750000000000000,  0.000000000000001,  0.916666666666666 ]
    mass: 207.200000
    reduced_to: 49
  - symbol: Pb # 85
    coordinates: [  0.000000000000000,  0.250000000000001,  0.916666666666666 ]
    mass: 207.200000
    reduced_to: 49
  - symbol: Pb # 86
    coordinates: [  0.250000000000000,  0.250000000000001,  0.916666666666666 ]
    mass: 207.200000
    reduced_to: 49
  - symbol: Pb # 87
    coordinates: [  0.500000000000000,  0.250000000000001,  0.916666666666666 ]
    mass: 207.200000
    reduced_to: 49
  - symbol: Pb # 88
    coordinates: [  0.750000000000000,  0.250000000000001,  0.916666666666666 ]
    mass: 207.200000
    reduced_to: 49
  - symbol: Pb # 89
    coordinates: [  0.000000000000000,  0.500000000000001,  0.916666666666666 ]
    mass: 207.200000
    reduced_to: 49
  - symbol: Pb # 90
    coordinates: [  0.250000000000000,  0.500000000000001,  0.916666666666666 ]
    mass: 207.200000
    reduced_to: 49
  - symbol: Pb # 91
    coordinates: [  0.500000000000000,  0.500000000000001,  0.916666666666666 ]
    mass: 207.200000
    reduced_to: 49
  - symbol: Pb # 92
    coordinates: [  0.750000000000000,  0.500000000000001,  0.916666666666666 ]
    mass: 207.200000
    reduced_to: 49
  - symbol: Pb # 93
    coordinates: [  0.000000000000000,  0.750000000000001,  0.916666666666666 ]
    mass: 207.200000
    reduced_to: 49
  - symbol: Pb # 94
    coordinates: [  0.250000000000000,  0.750000000000001,  0.916666666666666 ]
    mass: 207.200000
    reduced_to: 49
  - symbol: Pb # 95
    coordinates: [  0.500000000000000,  0.750000000000001,  0.916666666666666 ]
    mass: 207.200000
    reduced_to: 49
  - symbol: Pb # 96
    coordinates: [  0.750000000000000,  0.750000000000001,  0.916666666666666 ]
    mass: 207.200000
    reduced_to: 49
  - symbol: Pb # 97
    coordinates: [  0.125000000000001,  0.125000000000001,  0.249999999999999 ]
    mass: 207.200000
    reduced_to: 1
  - symbol: Pb # 98
    coordinates: [  0.375000000000001,  0.125000000000001,  0.249999999999999 ]
    mass: 207.200000
    reduced_to: 1
  - symbol: Pb # 99
    coordinates: [  0.625000000000001,  0.125000000000001,  0.249999999999999 ]
    mass: 207.200000
    reduced_to: 1
  - symbol: Pb # 100
    coordinates: [  0.875000000000001,  0.125000000000001,  0.249999999999999 ]
    mass: 207.200000
    reduced_to: 1
  - symbol: Pb # 101
    coordinates: [  0.125000000000001,  0.375000000000001,  0.249999999999999 ]
    mass: 207.200000
    reduced_to: 1
  - symbol: Pb # 102
    coordinates: [  0.375000000000001,  0.375000000000001,  0.249999999999999 ]
    mass: 207.200000
    reduced_to: 1
  - symbol: Pb # 103
    coordinates: [  0.625000000000001,  0.375000000000001,  0.249999999999999 ]
    mass: 207.200000
    reduced_to: 1
  - symbol: Pb # 104
    coordinates: [  0.875000000000001,  0.375000000000001,  0.249999999999999 ]
    mass: 207.200000
    reduced_to: 1
  - symbol: Pb # 105
    coordinates: [  0.125000000000001,  0.625000000000001,  0.249999999999999 ]
    mass: 207.200000
    reduced_to: 1
  - symbol: Pb # 106
    coordinates: [  0.375000000000001,  0.625000000000001,  0.249999999999999 ]
    mass: 207.200000
    reduced_to: 1
  - symbol: Pb # 107
    coordinates: [  0.625000000000001,  0.625000000000001,  0.249999999999999 ]
    mass: 207.200000
    reduced_to: 1
  - symbol: Pb # 108
    coordinates: [  0.875000000000001,  0.625000000000001,  0.249999999999999 ]
    mass: 207.200000
    reduced_to: 1
  - symbol: Pb # 109
    coordinates: [  0.125000000000001,  0.875000000000001,  0.249999999999999 ]
    mass: 207.200000
    reduced_to: 1
  - symbol: Pb # 110
    coordinates: [  0.375000000000001,  0.875000000000001,  0.249999999999999 ]
    mass: 207.200000
    reduced_to: 1
  - symbol: Pb # 111
    coordinates: [  0.625000000000001,  0.875000000000001,  0.249999999999999 ]
    mass: 207.200000
    reduced_to: 1
  - symbol: Pb # 112
    coordinates: [  0.875000000000001,  0.875000000000001,  0.249999999999999 ]
    mass: 207.200000
    reduced_to: 1
  - symbol: Pb # 113
    coordinates: [  0.125000000000001,  0.125000000000001,  0.583333333333332 ]
    mass: 207.200000
    reduced_to: 1
  - symbol: Pb # 114
    coordinates: [  0.375000000000001,  0.125000000000001,  0.583333333333332 ]
    mass: 207.200000
    reduced_to: 1
  - symbol: Pb # 115
    coordinates: [  0.625000000000001,  0.125000000000001,  0.583333333333332 ]
    mass: 207.200000
    reduced_to: 1
  - symbol: Pb # 116
    coordinates: [  0.875000000000001,  0.125000000000001,  0.583333333333332 ]
    mass: 207.200000
    reduced_to: 1
  - symbol: Pb # 117
    coordinates: [  0.125000000000001,  0.375000000000001,  0.583333333333332 ]
    mass: 207.200000
    reduced_to: 1
  - symbol: Pb # 118
    coordinates: [  0.375000000000001,  0.375000000000001,  0.583333333333332 ]
    mass: 207.200000
    reduced_to: 1
  - symbol: Pb # 119
    coordinates: [  0.625000000000001,  0.375000000000001,  0.583333333333332 ]
    mass: 207.200000
    reduced_to: 1
  - symbol: Pb # 120
    coordinates: [  0.875000000000001,  0.375000000000001,  0.583333333333332 ]
    mass: 207.200000
    reduced_to: 1
  - symbol: Pb # 121
    coordinates: [  0.125000000000001,  0.625000000000001,  0.583333333333332 ]
    mass: 207.200000
    reduced_to: 1
  - symbol: Pb # 122
    coordinates: [  0.375000000000001,  0.625000000000001,  0.583333333333332 ]
    mass: 207.200000
    reduced_to: 1
  - symbol: Pb # 123
    coordinates: [  0.625000000000001,  0.625000000000001,  0.583333333333332 ]
    mass: 207.200000
    reduced_to: 1
  - symbol: Pb # 124
    coordinates: [  0.875000000000001,  0.625000000000001,  0.583333333333332 ]
    mass: 207.200000
    reduced_to: 1
  - symbol: Pb # 125
    coordinates: [  0.125000000000001,  0.875000000000001,  0.583333333333332 ]
    mass: 207.200000
    reduced_to: 1
  - symbol: Pb # 126
    coordinates: [  0.375000000000001,  0.875000000000001,  0.583333333333332 ]
    mass: 207.200000
    reduced_to: 1
  - symbol: Pb # 127
    coordinates: [  0.625000000000001,  0.875000000000001,  0.583333333333332 ]
    mass: 207.200000
    reduced_to: 1
  - symbol: Pb # 128
    coordinates: [  0.875000000000001,  0.875000000000001,  0.583333333333332 ]
    mass: 207.200000
    reduced_to: 1
  - symbol: Pb # 129
    coordinates: [  0.125000000000001,  0.125000000000001,  0.916666666666666 ]
    mass: 207.200000
    reduced_to: 1
  - symbol: Pb # 130
    coordinates: [  0.375000000000001,  0.125000000000001,  0.916666666666666 ]
    mass: 207.200000
    reduced_to: 1
  - symbol: Pb # 131
    coordinates: [  0.625000000000001,  0.125000000000001,  0.916666666666666 ]
    mass: 207.200000
    reduced_to: 1
  - symbol: Pb # 132
    coordinates: [  0.875000000000001,  0.125000000000001,  0.916666666666666 ]
    mass: 207.200000
    reduced_to: 1
  - symbol: Pb # 133
    coordinates: [  0.125000000000001,  0.375000000000001,  0.916666666666666 ]
    mass: 207.200000
    reduced_to: 1
  - symbol: Pb # 134
    coordinates: [  0.375000000000001,  0.375000000000001,  0.916666666666666 ]
    mass: 207.200000
    reduced_to: 1
  - symbol: Pb # 135
    coordinates: [  0.625000000000001,  0.375000000000001,  0.916666666666666 ]
    mass: 207.200000
    reduced_to: 1
  - symbol: Pb # 136
    coordinates: [  0.875000000000001,  0.375000000000001,  0.916666666666666 ]
    mass: 207.200000
    reduced_to: 1
  - symbol: Pb # 137
    coordinates: [  0.125000000000001,  0.625000000000001,  0.916666666666666 ]
    mass: 207.200000
    reduced_to: 1
  - symbol: Pb # 138
    coordinates: [  0.375000000000001,  0.625000000000001,  0.916666666666666 ]
    mass: 207.200000
    reduced_to: 1
  - symbol: Pb # 139
    coordinates: [  0.625000000000001,  0.625000000000001,  0.916666666666666 ]
    mass: 207.200000
    reduced_to: 1
  - symbol: Pb # 140
    coordinates: [  0.875000000000001,  0.625000000000001,  0.916666666666666 ]
    mass: 207.200000
    reduced_to: 1
  - symbol: Pb # 141
    coordinates: [  0.125000000000001,  0.875000000000001,  0.916666666666666 ]
    mass: 207.200000
    reduced_to: 1
  - symbol: Pb # 142
    coordinates: [  0.375000000000001,  0.875000000000001,  0.916666666666666 ]
    mass: 207.200000
    reduced_to: 1
  - symbol: Pb # 143
    coordinates: [  0.625000000000001,  0.875000000000001,  0.916666666666666 ]
    mass: 207.200000
    reduced_to: 1
  - symbol: Pb # 144
    coordinates: [  0.875000000000001,  0.875000000000001,  0.916666666666666 ]
    mass: 207.200000
    reduced_to: 1
  - symbol: Pb # 145
    coordinates: [  0.125000000000000,  0.125000000000001,  0.083333333333332 ]
    mass: 207.200000
    reduced_to: 49
  - symbol: Pb # 146
    coordinates: [  0.375000000000000,  0.125000000000001,  0.083333333333332 ]
    mass: 207.200000
    reduced_to: 49
  - symbol: Pb # 147
    coordinates: [  0.625000000000000,  0.125000000000001,  0.083333333333332 ]
    mass: 207.200000
    reduced_to: 49
  - symbol: Pb # 148
    coordinates: [  0.875000000000000,  0.125000000000001,  0.083333333333332 ]
    mass: 207.200000
    reduced_to: 49
  - symbol: Pb # 149
    coordinates: [  0.125000000000000,  0.375000000000001,  0.083333333333332 ]
    mass: 207.200000
    reduced_to: 49
  - symbol: Pb # 150
    coordinates: [  0.375000000000000,  0.375000000000001,  0.083333333333332 ]
    mass: 207.200000
    reduced_to: 49
  - symbol: Pb # 151
    coordinates: [  0.625000000000000,  0.375000000000001,  0.083333333333332 ]
    mass: 207.200000
    reduced_to: 49
  - symbol: Pb # 152
    coordinates: [  0.875000000000000,  0.375000000000001,  0.083333333333332 ]
    mass: 207.200000
    reduced_to: 49
  - symbol: Pb # 153
    coordinates: [  0.125000000000000,  0.625000000000001,  0.083333333333332 ]
    mass: 207.200000
    reduced_to: 49
  - symbol: Pb # 154
    coordinates: [  0.375000000000000,  0.625000000000001,  0.083333333333332 ]
    mass: 207.200000
    reduced_to: 49
  - symbol: Pb # 155
    coordinates: [  0.625000000000000,  0.625000000000001,  0.083333333333332 ]
    mass: 207.200000
    reduced_to: 49
  - symbol: Pb # 156
    coordinates: [  0.875000000000000,  0.625000000000001,  0.083333333333332 ]
    mass: 207.200000
    reduced_to: 49
  - symbol: Pb # 157
    coordinates: [  0.125000000000000,  0.875000000000001,  0.083333333333332 ]
    mass: 207.200000
    reduced_to: 49
  - symbol: Pb # 158
    coordinates: [  0.375000000000000,  0.875000000000001,  0.083333333333332 ]
    mass: 207.200000
    reduced_to: 49
  - symbol: Pb # 159
    coordinates: [  0.625000000000000,  0.875000000000001,  0.083333333333332 ]
    mass: 207.200000
    reduced_to: 49
  - symbol: Pb # 160
    coordinates: [  0.875000000000000,  0.875000000000001,  0.083333333333332 ]
    mass: 207.200000
    reduced_to: 49
  - symbol: Pb # 161
    coordinates: [  0.125000000000000,  0.125000000000001,  0.416666666666666 ]
    mass: 207.200000
    reduced_to: 49
  - symbol: Pb # 162
    coordinates: [  0.375000000000000,  0.125000000000001,  0.416666666666666 ]
    mass: 207.200000
    reduced_to: 49
  - symbol: Pb # 163
    coordinates: [  0.625000000000000,  0.125000000000001,  0.416666666666666 ]
    mass: 207.200000
    reduced_to: 49
  - symbol: Pb # 164
    coordinates: [  0.875000000000000,  0.125000000000001,  0.416666666666666 ]
    mass: 207.200000
    reduced_to: 49
  - symbol: Pb # 165
    coordinates: [  0.125000000000000,  0.375000000000001,  0.416666666666666 ]
    mass: 207.200000
    reduced_to: 49
  - symbol: Pb # 166
    coordinates: [  0.375000000000000,  0.375000000000001,  0.416666666666666 ]
    mass: 207.200000
    reduced_to: 49
  - symbol: Pb # 167
    coordinates: [  0.625000000000000,  0.375000000000001,  0.416666666666666 ]
    mass: 207.200000
    reduced_to: 49
  - symbol: Pb # 168
    coordinates: [  0.875000000000000,  0.375000000000001,  0.416666666666666 ]
    mass: 207.200000
    reduced_to: 49
  - symbol: Pb # 169
    coordinates: [  0.125000000000000,  0.625000000000001,  0.416666666666666 ]
    mass: 207.200000
    reduced_to: 49
  - symbol: Pb # 170
    coordinates: [  0.375000000000000,  0.625000000000001,  0.416666666666666 ]
    mass: 207.200000
    reduced_to: 49
  - symbol: Pb # 171
    coordinates: [  0.625000000000000,  0.625000000000001,  0.416666666666666 ]
    mass: 207.200000
    reduced_to: 49
  - symbol: Pb # 172
    coordinates: [  0.875000000000000,  0.625000000000001,  0.416666666666666 ]
    mass: 207.200000
    reduced_to: 49
  - symbol: Pb # 173
    coordinates: [  0.125000000000000,  0.875000000000001,  0.416666666666666 ]
    mass: 207.200000
    reduced_to: 49
  - symbol: Pb # 174
    coordinates: [  0.375000000000000,  0.875000000000001,  0.416666666666666 ]
    mass: 207.200000
    reduced_to: 49
  - symbol: Pb # 175
    coordinates: [  0.625000000000000,  0.875000000000001,  0.416666666666666 ]
    mass: 207.200000
    reduced_to: 49
  - symbol: Pb # 176
    coordinates: [  0.875000000000000,  0.875000000000001,  0.416666666666666 ]
    mass: 207.200000
    reduced_to: 49
  - symbol: Pb # 177
    coordinates: [  0.125000000000000,  0.125000000000001,  0.749999999999999 ]
    mass: 207.200000
    reduced_to: 49
  - symbol: Pb # 178
    coordinates: [  0.375000000000000,  0.125000000000001,  0.749999999999999 ]
    mass: 207.200000
    reduced_to: 49
  - symbol: Pb # 179
    coordinates: [  0.625000000000000,  0.125000000000001,  0.749999999999999 ]
    mass: 207.200000
    reduced_to: 49
  - symbol: Pb # 180
    coordinates: [  0.875000000000000,  0.125000000000001,  0.749999999999999 ]
    mass: 207.200000
    reduced_to: 49
  - symbol: Pb # 181
    coordinates: [  0.125000000000000,  0.375000000000001,  0.749999999999999 ]
    mass: 207.200000
    reduced_to: 49
  - symbol: Pb # 182
    coordinates: [  0.375000000000000,  0.375000000000001,  0.749999999999999 ]
    mass: 207.200000
    reduced_to: 49
  - symbol: Pb # 183
    coordinates: [  0.625000000000000,  0.375000000000001,  0.749999999999999 ]
    mass: 207.200000
    reduced_to: 49
  - symbol: Pb # 184
    coordinates: [  0.875000000000000,  0.375000000000001,  0.749999999999999 ]
    mass: 207.200000
    reduced_to: 49
  - symbol: Pb # 185
    coordinates: [  0.125000000000000,  0.625000000000001,  0.749999999999999 ]
    mass: 207.200000
    reduced_to: 49
  - symbol: Pb # 186
    coordinates: [  0.375000000000000,  0.625000000000001,  0.749999999999999 ]
    mass: 207.200000
    reduced_to: 49
  - symbol: Pb # 187