phonopy:
  version: "2.21.0"
  frequency_unit_conversion_factor: 15.633302
  symmetry_tolerance: 1.00000e-04

space_group:
  type: "P2_1/c"
  number: 14
  Hall_symbol: "-P 2ybc"

primitive_matrix:
- [  1.000000000000000,  0.000000000000000,  0.000000000000000 ]
- [  0.000000000000000,  1.000000000000000,  0.000000000000000 ]
- [  0.000000000000000,  0.000000000000000,  1.000000000000000 ]

supercell_matrix:
- [   0,   5,   0 ]
- [   3,   0,   0 ]
- [  -2,   0,  -3 ]

primitive_cell:
  lattice:
  - [     0.000000000000000,     8.016743487819951,     0.021821564749845 ] # a
  - [     4.526924412848293,     0.000000000000000,     0.000000000000000 ] # b
  - [     0.000000000000000,    -4.809111978158222,    -7.759988886466854 ] # c
  points:
  - symbol: Ag # 1
    coordinates: [  0.032846003129581,  0.122507441099995,  0.658102342869967 ]
    mass: 107.868200
  - symbol: Ag # 2
    coordinates: [  0.967153996870419,  0.622507441100002,  0.841897657130034 ]
    mass: 107.868200
  - symbol: Ag # 3
    coordinates: [  0.967153996870419,  0.877492558899998,  0.341897657130034 ]
    mass: 107.868200
  - symbol: Ag # 4
    coordinates: [  0.032846003129581,  0.377492558900005,  0.158102342869967 ]
    mass: 107.868200
  - symbol: Ag # 5
    coordinates: [  0.334576511826315,  0.857057954315252,  0.345582441453125 ]
    mass: 107.868200
  - symbol: Ag # 6
    coordinates: [  0.665423488173685,  0.357057954315252,  0.154417558546875 ]
    mass: 107.868200
  - symbol: Ag # 7
    coordinates: [  0.665423488173685,  0.142942045684748,  0.654417558546875 ]
    mass: 107.868200
  - symbol: Ag # 8
    coordinates: [  0.334576511826315,  0.642942045684748,  0.845582441453126 ]
    mass: 107.868200
  - symbol: Te # 9
    coordinates: [  0.273192534561381,  0.145688452489183,  0.030862984978420 ]
    mass: 127.600000
  - symbol: Te # 10
    coordinates: [  0.726807465438619,  0.645688452489183,  0.469137015021581 ]
    mass: 127.600000
  - symbol: Te # 11
    coordinates: [  0.726807465438619,  0.854311547510817,  0.969137015021581 ]
    mass: 127.600000
  - symbol: Te # 12
    coordinates: [  0.273192534561381,  0.354311547510817,  0.530862984978420 ]
    mass: 127.600000
  reciprocal_lattice: # without 2pi
  - [     0.000000000000000,     0.124949708211875,    -0.077435309150642 ] # a*
  - [     0.220900529543150,     0.000000000000000,    -0.000000000000000 ] # b*
  - [     0.000000000000000,     0.000351366243961,    -0.129083916777183 ] # c*

unit_cell:
  lattice:
  - [     0.000000000000000,     8.016743487819953,     0.021821564749845 ] # a
  - [     4.526924412848293,     0.000000000000000,     0.000000000000000 ] # b
  - [     0.000000000000000,    -4.809111978158222,    -7.759988886466854 ] # c
  points:
  - symbol: Ag # 1
    coordinates: [  0.032846003129581,  0.122507441099995,  0.658102342869967 ]
    mass: 107.868200
    reduced_to: 1
  - symbol: Ag # 2
    coordinates: [  0.967153996870419,  0.622507441100002,  0.841897657130033 ]
    mass: 107.868200
    reduced_to: 2
  - symbol: Ag # 3
    coordinates: [  0.967153996870419,  0.877492558899998,  0.341897657130033 ]
    mass: 107.868200
    reduced_to: 3
  - symbol: Ag # 4
    coordinates: [  0.032846003129581,  0.377492558900005,  0.158102342869967 ]
    mass: 107.868200
    reduced_to: 4
  - symbol: Ag # 5
    coordinates: [  0.334576511826315,  0.857057954315252,  0.345582441453125 ]
    mass: 107.868200
    reduced_to: 5
  - symbol: Ag # 6
    coordinates: [  0.665423488173685,  0.357057954315252,  0.154417558546875 ]
    mass: 107.868200
    reduced_to: 6
  - symbol: Ag # 7
    coordinates: [  0.665423488173685,  0.142942045684748,  0.654417558546875 ]
    mass: 107.868200
    reduced_to: 7
  - symbol: Ag # 8
    coordinates: [  0.334576511826315,  0.642942045684748,  0.845582441453125 ]
    mass: 107.868200
    reduced_to: 8
  - symbol: Te # 9
    coordinates: [  0.273192534561381,  0.145688452489183,  0.030862984978420 ]
    mass: 127.600000
    reduced_to: 9
  - symbol: Te # 10
    coordinates: [  0.726807465438619,  0.645688452489183,  0.469137015021581 ]
    mass: 127.600000
    reduced_to: 10
  - symbol: Te # 11
    coordinates: [  0.726807465438619,  0.854311547510817,  0.969137015021581 ]
    mass: 127.600000
    reduced_to: 11
  - symbol: Te # 12
    coordinates: [  0.273192534561381,  0.354311547510817,  0.530862984978419 ]
    mass: 127.600000
    reduced_to: 12

supercell:
  lattice:
  - [    13.580773238544880,     9.618223956316443,    15.519977772933709 ] # a
  - [     0.000000000000000,    40.083717439099765,     0.109107823749226 ] # b
  - [     0.000000000000000,    14.427335934474664,    23.279966659400561 ] # c
  points:
  - symbol: Ag # 1
    coordinates: [  0.040835813699998,  0.006569200625916,  0.753408676576679 ]
    mass: 107.868200
    reduced_to: 1
  - symbol: Ag # 2
    coordinates: [  0.040835813699998,  0.206569200625916,  0.753408676576679 ]
    mass: 107.868200
    reduced_to: 1
  - symbol: Ag # 3
    coordinates: [  0.040835813699998,  0.406569200625916,  0.753408676576679 ]
    mass: 107.868200
    reduced_to: 1
  - symbol: Ag # 4
    coordinates: [  0.040835813699998,  0.606569200625916,  0.753408676576679 ]
    mass: 107.868200
    reduced_to: 1
  - symbol: Ag # 5
    coordinates: [  0.040835813699998,  0.806569200625916,  0.753408676576679 ]
    mass: 107.868200
    reduced_to: 1
  - symbol: Ag # 6
    coordinates: [  0.374169147033332,  0.006569200625916,  0.531186454354457 ]
    mass: 107.868200
    reduced_to: 1
  - symbol: Ag # 7
    coordinates: [  0.374169147033332,  0.206569200625916,  0.531186454354457 ]
    mass: 107.868200
    reduced_to: 1
  - symbol: Ag # 8
    coordinates: [  0.374169147033332,  0.406569200625916,  0.531186454354457 ]
    mass: 107.868200
    reduced_to: 1
  - symbol: Ag # 9
    coordinates: [  0.374169147033332,  0.606569200625916,  0.531186454354457 ]
    mass: 107.868200
    reduced_to: 1
  - symbol: Ag # 10
    coordinates: [  0.374169147033332,  0.806569200625916,  0.531186454354457 ]
    mass: 107.868200
    reduced_to: 1
  - symbol: Ag # 11
    coordinates: [  0.707502480366665,  0.006569200625916,  0.308964232132234 ]
    mass: 107.868200
    reduced_to: 1
  - symbol: Ag # 12
    coordinates: [  0.707502480366665,  0.206569200625916,  0.308964232132234 ]
    mass: 107.868200
    reduced_to: 1
  - symbol: Ag # 13
    coordinates: [  0.707502480366665,  0.406569200625916,  0.308964232132234 ]
    mass: 107.868200
    reduced_to: 1
  - symbol: Ag # 14
    coordinates: [  0.707502480366665,  0.606569200625916,  0.308964232132234 ]
    mass: 107.868200
    reduced_to: 1
  - symbol: Ag # 15
    coordinates: [  0.707502480366665,  0.806569200625916,  0.308964232132234 ]
    mass: 107.868200
    reduced_to: 1
  - symbol: Ag # 16
    coordinates: [  0.040835813699998,  0.006569200625916,  0.420075343243346 ]
    mass: 107.868200
    reduced_to: 1
  - symbol: Ag # 17
    coordinates: [  0.040835813699998,  0.206569200625916,  0.420075343243346 ]
    mass: 107.868200
    reduced_to: 1
  - symbol: Ag # 18
    coordinates: [  0.040835813699998,  0.406569200625916,  0.420075343243346 ]
    mass: 107.868200
    reduced_to: 1
  - symbol: Ag # 19
    coordinates: [  0.040835813699998,  0.606569200625916,  0.420075343243346 ]
    mass: 107.868200
    reduced_to: 1
  - symbol: Ag # 20
    coordinates: [  0.040835813699998,  0.806569200625916,  0.420075343243346 ]
    mass: 107.868200
    reduced_to: 1
  - symbol: Ag # 21
    coordinates: [  0.374169147033332,  0.006569200625916,  0.197853121021123 ]
    mass: 107.868200
    reduced_to: 1
  - symbol: Ag # 22
    coordinates: [  0.374169147033332,  0.206569200625916,  0.197853121021123 ]
    mass: 107.868200
    reduced_to: 1
  - symbol: Ag # 23
    coordinates: [  0.374169147033332,  0.406569200625916,  0.197853121021123 ]
    mass: 107.868200
    reduced_to: 1
  - symbol: Ag # 24
    coordinates: [  0.374169147033332,  0.606569200625916,  0.197853121021123 ]
    mass: 107.868200
    reduced_to: 1
  - symbol: Ag # 25
    coordinates: [  0.374169147033332,  0.806569200625916,  0.197853121021123 ]
    mass: 107.868200
    reduced_to: 1
  - symbol: Ag # 26
    coordinates: [  0.707502480366665,  0.006569200625916,  0.975630898798901 ]
    mass: 107.868200
    reduced_to: 1
  - symbol: Ag # 27
    coordinates: [  0.707502480366665,  0.206569200625916,  0.975630898798901 ]
    mass: 107.868200
    reduced_to: 1
  - symbol: Ag # 28
    coordinates: [  0.707502480366665,  0.406569200625916,  0.975630898798901 ]
    mass: 107.868200
    reduced_to: 1
  - symbol: Ag # 29
    coordinates: [  0.707502480366665,  0.606569200625916,  0.975630898798901 ]
    mass: 107.868200
    reduced_to: 1
  - symbol: Ag # 30
    coordinates: [  0.707502480366665,  0.806569200625916,  0.975630898798901 ]
    mass: 107.868200
    reduced_to: 1
  - symbol: Ag # 31
    coordinates: [  0.040835813699998,  0.006569200625916,  0.086742009910012 ]
    mass: 107.868200
    reduced_to: 1
  - symbol: Ag # 32
    coordinates: [  0.040835813699998,  0.206569200625916,  0.086742009910012 ]
    mass: 107.868200
    reduced_to: 1
  - symbol: Ag # 33
    coordinates: [  0.040835813699998,  0.406569200625916,  0.086742009910012 ]
    mass: 107.868200
    reduced_to: 1
  - symbol: Ag # 34
    coordinates: [  0.040835813699998,  0.606569200625916,  0.086742009910012 ]
    mass: 107.868200
    reduced_to: 1
  - symbol: Ag # 35
    coordinates: [  0.040835813699998,  0.806569200625916,  0.086742009910012 ]
    mass: 107.868200
    reduced_to: 1
  - symbol: Ag # 36
    coordinates: [  0.374169147033332,  0.006569200625916,  0.864519787687790 ]
    mass: 107.868200
    reduced_to: 1
  - symbol: Ag # 37
    coordinates: [  0.374169147033332,  0.206569200625916,  0.864519787687790 ]
    mass: 107.868200
    reduced_to: 1
  - symbol: Ag # 38
    coordinates: [  0.374169147033332,  0.406569200625916,  0.864519787687790 ]
    mass: 107.868200
    reduced_to: 1
  - symbol: Ag # 39
    coordinates: [  0.374169147033332,  0.606569200625916,  0.864519787687790 ]
    mass: 107.868200
    reduced_to: 1
  - symbol: Ag # 40
    coordinates: [  0.374169147033332,  0.806569200625916,  0.864519787687790 ]
    mass: 107.868200
    reduced_to: 1
  - symbol: Ag # 41
    coordinates: [  0.707502480366665,  0.006569200625916,  0.642297565465568 ]
    mass: 107.868200
    reduced_to: 1
  - symbol: Ag # 42
    coordinates: [  0.707502480366665,  0.206569200625916,  0.642297565465568 ]
    mass: 107.868200
    reduced_to: 1
  - symbol: Ag # 43
    coordinates: [  0.707502480366665,  0.406569200625916,  0.642297565465568 ]
    mass: 107.868200
    reduced_to: 1
  - symbol: Ag # 44
    coordinates: [  0.707502480366665,  0.606569200625916,  0.642297565465568 ]
    mass: 107.868200
    reduced_to: 1
  - symbol: Ag # 45
    coordinates: [  0.707502480366665,  0.806569200625916,  0.642297565465568 ]
    mass: 107.868200
    reduced_to: 1
  - symbol: Ag # 46
    coordinates: [  0.207502480366667,  0.193430799374084,  0.581032460712211 ]
    mass: 107.868200
    reduced_to: 46
  - symbol: Ag # 47
    coordinates: [  0.207502480366667,  0.393430799374084,  0.581032460712211 ]
    mass: 107.868200
    reduced_to: 46
  - symbol: Ag # 48
    coordinates: [  0.207502480366667,  0.593430799374084,  0.581032460712211 ]
    mass: 107.868200
    reduced_to: 46
  - symbol: Ag # 49
    coordinates: [  0.207502480366667,  0.793430799374084,  0.581032460712211 ]
    mass: 107.868200
    reduced_to: 46
  - symbol: Ag # 50
    coordinates: [  0.207502480366667,  0.993430799374084,  0.581032460712211 ]
    mass: 107.868200
    reduced_to: 46
  - symbol: Ag # 51
    coordinates: [  0.540835813700001,  0.193430799374084,  0.358810238489988 ]
    mass: 107.868200
    reduced_to: 46
  - symbol: Ag # 52
    coordinates: [  0.540835813700001,  0.393430799374084,  0.358810238489988 ]
    mass: 107.868200
    reduced_to: 46
  - symbol: Ag # 53
    coordinates: [  0.540835813700001,  0.593430799374084,  0.358810238489988 ]
    mass: 107.868200
    reduced_to: 46
  - symbol: Ag # 54
    coordinates: [  0.540835813700001,  0.793430799374084,  0.358810238489988 ]
    mass: 107.868200
    reduced_to: 46
  - symbol: Ag # 55
    coordinates: [  0.540835813700001,  0.993430799374084,  0.358810238489988 ]
    mass: 107.868200
    reduced_to: 46
  - symbol: Ag # 56
    coordinates: [  0.874169147033334,  0.193430799374084,  0.136588016267766 ]
    mass: 107.868200
    reduced_to: 46
  - symbol: Ag # 57
    coordinates: [  0.874169147033334,  0.393430799374084,  0.136588016267766 ]
    mass: 107.868200
    reduced_to: 46
  - symbol: Ag # 58
    coordinates: [  0.874169147033334,  0.593430799374084,  0.136588016267766 ]
    mass: 107.868200
    reduced_to: 46
  - symbol: Ag # 59
    coordinates: [  0.874169147033334,  0.793430799374084,  0.136588016267766 ]
    mass: 107.868200
    reduced_to: 46
  - symbol: Ag # 60
    coordinates: [  0.874169147033334,  0.993430799374084,  0.136588016267766 ]
    mass: 107.868200
    reduced_to: 46
  - symbol: Ag # 61
    coordinates: [  0.207502480366667,  0.193430799374084,  0.247699127378877 ]
    mass: 107.868200
    reduced_to: 46
  - symbol: Ag # 62
    coordinates: [  0.207502480366667,  0.393430799374084,  0.247699127378877 ]
    mass: 107.868200
    reduced_to: 46
  - symbol: Ag # 63
    coordinates: [  0.207502480366667,  0.593430799374084,  0.247699127378877 ]
    mass: 107.868200
    reduced_to: 46
  - symbol: Ag # 64
    coordinates: [  0.207502480366667,  0.793430799374084,  0.247699127378877 ]
    mass: 107.868200
    reduced_to: 46
  - symbol: Ag # 65
    coordinates: [  0.207502480366667,  0.993430799374084,  0.247699127378877 ]
    mass: 107.868200
    reduced_to: 46
  - symbol: Ag # 66
    coordinates: [  0.540835813700001,  0.193430799374084,  0.025476905156655 ]
    mass: 107.868200
    reduced_to: 46
  - symbol: Ag # 67
    coordinates: [  0.540835813700001,  0.393430799374084,  0.025476905156655 ]
    mass: 107.868200
    reduced_to: 46
  - symbol: Ag # 68
    coordinates: [  0.540835813700001,  0.593430799374084,  0.025476905156655 ]
    mass: 107.868200
    reduced_to: 46
  - symbol: Ag # 69
    coordinates: [  0.540835813700001,  0.793430799374084,  0.025476905156655 ]
    mass: 107.868200
    reduced_to: 46
  - symbol: Ag # 70
    coordinates: [  0.540835813700001,  0.993430799374084,  0.025476905156655 ]
    mass: 107.868200
    reduced_to: 46
  - symbol: Ag # 71
    coordinates: [  0.874169147033334,  0.193430799374084,  0.803254682934433 ]
    mass: 107.868200
    reduced_to: 46
  - symbol: Ag # 72
    coordinates: [  0.874169147033334,  0.393430799374084,  0.803254682934433 ]
    mass: 107.868200
    reduced_to: 46
  - symbol: Ag # 73
    coordinates: [  0.874169147033334,  0.593430799374084,  0.803254682934433 ]
    mass: 107.868200
    reduced_to: 46
  - symbol: Ag # 74
    coordinates: [  0.874169147033334,  0.793430799374084,  0.803254682934433 ]
    mass: 107.868200
    reduced_to: 46
  - symbol: Ag # 75
    coordinates: [  0.874169147033334,  0.993430799374084,  0.803254682934433 ]
    mass: 107.868200
    reduced_to: 46
  - symbol: Ag # 76
    coordinates: [  0.207502480366667,  0.193430799374084,  0.914365794045544 ]
    mass: 107.868200
    reduced_to: 46
  - symbol: Ag # 77
    coordinates: [  0.207502480366667,  0.393430799374084,  0.914365794045544 ]
    mass: 107.868200
    reduced_to: 46
  - symbol: Ag # 78
    coordinates: [  0.207502480366667,  0.593430799374084,  0.914365794045544 ]
    mass: 107.868200
    reduced_to: 46
  - symbol: Ag # 79
    coordinates: [  0.207502480366667,  0.793430799374084,  0.914365794045544 ]
    mass: 107.868200
    reduced_to: 46
  - symbol: Ag # 80
    coordinates: [  0.207502480366667,  0.993430799374084,  0.914365794045544 ]
    mass: 107.868200
    reduced_to: 46
  - symbol: Ag # 81
    coordinates: [  0.540835813700001,  0.193430799374084,  0.692143571823322 ]
    mass: 107.868200
    reduced_to: 46
  - symbol: Ag # 82
    coordinates: [  0.540835813700001,  0.393430799374084,  0.692143571823322 ]
    mass: 107.868200
    reduced_to: 46
  - symbol: Ag # 83
    coordinates: [  0.540835813700001,  0.593430799374084,  0.692143571823322 ]
    mass: 107.868200
    reduced_to: 46
  - symbol: Ag # 84
    coordinates: [  0.540835813700001,  0.793430799374084,  0.692143571823322 ]
    mass: 107.868200
    reduced_to: 46
  - symbol: Ag # 85
    coordinates: [  0.540835813700001,  0.993430799374084,  0.692143571823322 ]
    mass: 107.868200
    reduced_to: 46
  - symbol: Ag # 86
    coordinates: [  0.874169147033334,  0.193430799374084,  0.469921349601099 ]
    mass: 107.868200
    reduced_to: 46
  - symbol: Ag # 87
    coordinates: [  0.874169147033334,  0.393430799374084,  0.469921349601099 ]
    mass: 107.868200
    reduced_to: 46
  - symbol: Ag # 88
    coordinates: [  0.874169147033334,  0.593430799374084,  0.469921349601099 ]
    mass: 107.868200
    reduced_to: 46
  - symbol: Ag # 89
    coordinates: [  0.874169147033334,  0.793430799374084,  0.469921349601099 ]
    mass: 107.868200
    reduced_to: 46
  - symbol: Ag # 90
    coordinates: [  0.874169147033334,  0.993430799374084,  0.469921349601099 ]
    mass: 107.868200
    reduced_to: 46
  - symbol: Ag # 91
    coordinates: [  0.292497519633333,  0.193430799374084,  0.691035767867767 ]
    mass: 107.868200
    reduced_to: 91
  - symbol: Ag # 92
    coordinates: [  0.292497519633333,  0.393430799374084,  0.691035767867767 ]
    mass: 107.868200
    reduced_to: 91
  - symbol: Ag # 93
    coordinates: [  0.292497519633333,  0.593430799374084,  0.691035767867767 ]
    mass: 107.868200
    reduced_to: 91
  - symbol: Ag # 94
    coordinates: [  0.292497519633333,  0.793430799374084,  0.691035767867767 ]
    mass: 107.868200
    reduced_to: 91
  - symbol: Ag # 95
    coordinates: [  0.292497519633333,  0.993430799374084,  0.691035767867767 ]
    mass: 107.868200
    reduced_to: 91
  - symbol: Ag # 96
    coordinates: [  0.625830852966666,  0.193430799374084,  0.468813545645545 ]
    mass: 107.868200
    reduced_to: 91
  - symbol: Ag # 97
    coordinates: [  0.625830852966666,  0.393430799374084,  0.468813545645545 ]
    mass: 107.868200
    reduced_to: 91
  - symbol: Ag # 98
    coordinates: [  0.625830852966666,  0.593430799374084,  0.468813545645545 ]
    mass: 107.868200
    reduced_to: 91
  - symbol: Ag # 99
    coordinates: [  0.625830852966666,  0.793430799374084,  0.468813545645545 ]
    mass: 107.868200
    reduced_to: 91
  - symbol: Ag # 100
    coordinates: [  0.625830852966666,  0.993430799374084,  0.468813545645545 ]
    mass: 107.868200
    reduced_to: 91
  - symbol: Ag # 101
    coordinates: [  0.959164186299999,  0.193430799374084,  0.246591323423323 ]
    mass: 107.868200
    reduced_to: 91
  - symbol: Ag # 102
    coordinates: [  0.959164186299999,  0.393430799374084,  0.246591323423323 ]
    mass: 107.868200
    reduced_to: 91
  - symbol: Ag # 103
    coordinates: [  0.959164186299999,  0.593430799374084,  0.246591323423323 ]
    mass: 107.868200
    reduced_to: 91
  - symbol: Ag # 104
    coordinates: [  0.959164186299999,  0.793430799374084,  0.246591323423323 ]
    mass: 107.868200
    reduced_to: 91
  - symbol: Ag # 105
    coordinates: [  0.959164186299999,  0.993430799374084,  0.246591323423323 ]
    mass: 107.868200
    reduced_to: 91
  - symbol: Ag # 106
    coordinates: [  0.292497519633333,  0.193430799374084,  0.357702434534434 ]
    mass: 107.868200
    reduced_to: 91
  - symbol: Ag # 107
    coordinates: [  0.292497519633333,  0.393430799374084,  0.357702434534434 ]
    mass: 107.868200
    reduced_to: 91
  - symbol: Ag # 108
    coordinates: [  0.292497519633333,  0.593430799374084,  0.357702434534434 ]
    mass: 107.868200
    reduced_to: 91
  - symbol: Ag # 109
    coordinates: [  0.292497519633333,  0.793430799374084,  0.357702434534434 ]
    mass: 107.868200
    reduced_to: 91
  - symbol: Ag # 110
    coordinates: [  0.292497519633333,  0.993430799374084,  0.357702434534434 ]
    mass: 107.868200
    reduced_to: 91
  - symbol: Ag # 111
    coordinates: [  0.625830852966666,  0.193430799374084,  0.135480212312212 ]
    mass: 107.868200
    reduced_to: 91
  - symbol: Ag # 112
    coordinates: [  0.625830852966666,  0.393430799374084,  0.135480212312212 ]
    mass: 107.868200
    reduced_to: 91
  - symbol: Ag # 113
    coordinates: [  0.625830852966666,  0.593430799374084,  0.135480212312212 ]
    mass: 107.868200
    reduced_to: 91
  - symbol: Ag # 114
    coordinates: [  0.625830852966666,  0.793430799374084,  0.135480212312212 ]
    mass: 107.868200
    reduced_to: 91
  - symbol: Ag # 115
    coordinates: [  0.625830852966666,  0.993430799374084,  0.135480212312212 ]
    mass: 107.868200
    reduced_to: 91
  - symbol: Ag # 116
    coordinates: [  0.959164186299999,  0.193430799374084,  0.913257990089989 ]
    mass: 107.868200
    reduced_to: 91
  - symbol: Ag # 117
    coordinates: [  0.959164186299999,  0.393430799374084,  0.913257990089989 ]
    mass: 107.868200
    reduced_to: 91
  - symbol: Ag # 118
    coordinates: [  0.959164186299999,  0.593430799374084,  0.913257990089989 ]
    mass: 107.868200
    reduced_to: 91
  - symbol: Ag # 119
    coordinates: [  0.959164186299999,  0.793430799374084,  0.913257990089989 ]
    mass: 107.868200
    reduced_to: 91
  - symbol: Ag # 120
    coordinates: [  0.959164186299999,  0.993430799374084,  0.913257990089989 ]
    mass: 107.868200
    reduced_to: 91
  - symbol: Ag # 121
    coordinates: [  0.292497519633333,  0.193430799374084,  0.024369101201100 ]
    mass: 107.868200
    reduced_to: 91
  - symbol: Ag # 122
    coordinates: [  0.292497519633333,  0.393430799374084,  0.024369101201100 ]
    mass: 107.868200
    reduced_to: 91
  - symbol: Ag # 123
    coordinates: [  0.292497519633333,  0.593430799374084,  0.024369101201100 ]
    mass: 107.868200
    reduced_to: 91
  - symbol: Ag # 124
    coordinates: [  0.292497519633333,  0.793430799374084,  0.024369101201100 ]
    mass: 107.868200
    reduced_to: 91
  - symbol: Ag # 125
    coordinates: [  0.292497519633333,  0.993430799374084,  0.024369101201100 ]
    mass: 107.868200
    reduced_to: 91
  - symbol: Ag # 126
    coordinates: [  0.625830852966666,  0.193430799374084,  0.802146878978878 ]
    mass: 107.868200
    reduced_to: 91
  - symbol: Ag # 127
    coordinates: [  0.625830852966666,  0.393430799374084,  0.802146878978878 ]
    mass: 107.868200
    reduced_to: 91
  - symbol: Ag # 128
    coordinates: [  0.625830852966666,  0.593430799374084,  0.802146878978878 ]
    mass: 107.868200
    reduced_to: 91
  - symbol: Ag # 129
    coordinates: [  0.625830852966666,  0.793430799374084,  0.802146878978878 ]
    mass: 107.868200
    reduced_to: 91
  - symbol: Ag # 130
    coordinates: [  0.625830852966666,  0.993430799374084,  0.802146878978878 ]
    mass: 107.868200
    reduced_to: 91
  - symbol: Ag # 131
    coordinates: [  0.959164186299999,  0.193430799374084,  0.579924656756656 ]
    mass: 107.868200
    reduced_to: 91
  - symbol: Ag # 132
    coordinates: [  0.959164186299999,  0.393430799374084,  0.579924656756656 ]
    mass: 107.868200
    reduced_to: 91
  - symbol: Ag # 133
    coordinates: [  0.959164186299999,  0.593430799374084,  0.579924656756656 ]
    mass: 107.868200
    reduced_to: 91
  - symbol: Ag # 134
    coordinates: [  0.959164186299999,  0.793430799374084,  0.579924656756656 ]
    mass: 107.868200
    reduced_to: 91
  - symbol: Ag # 135
    coordinates: [  0.959164186299999,  0.993430799374084,  0.579924656756656 ]
    mass: 107.868200
    reduced_to: 91
  - symbol: Ag # 136
    coordinates: [  0.125830852966668,  0.006569200625916,  0.863411983732232 ]
    mass: 107.868200
    reduced_to: 136
  - symbol: Ag # 137
    coordinates: [  0.125830852966668,  0.206569200625916,  0.863411983732232 ]
    mass: 107.868200
    reduced_to: 136
  - symbol: Ag # 138
    coordinates: [  0.125830852966668,  0.406569200625916,  0.863411983732232 ]
    mass: 107.868200
    reduced_to: 136
  - symbol: Ag # 139
    coordinates: [  0.125830852966668,  0.606569200625916,  0.863411983732232 ]
    mass: 107.868200
    reduced_to: 136
  - symbol: Ag # 140
    coordinates: [  0.125830852966668,  0.806569200625916,  0.863411983732232 ]
    mass: 107.868200
    reduced_to: 136
  - symbol: Ag # 141
    coordinates: [  0.459164186300002,  0.006569200625916,  0.641189761510010 ]
    mass: 107.868200
    reduced_to: 136
  - symbol: Ag # 142
    coordinates: [  0.459164186300002,  0.206569200625916,  0.641189761510010 ]
    mass: 107.868200
    reduced_to: 136
  - symbol: Ag # 143
    coordinates: [  0.459164186300002,  0.406569200625916,  0.641189761510010 ]
    mass: 107.868200
    reduced_to: 136
  - symbol: Ag # 144
    coordinates: [  0.459164186300002,  0.606569200625916,  0.641189761510010 ]
    mass: 107.868200
    reduced_to: 136
  - symbol: Ag # 145
    coordinates: [  0.459164186300002,  0.806569200625916,  0.641189761510010 ]
    mass: 107.868200
    reduced_to: 136
  - symbol: Ag # 146
    coordinates: [  0.792497519633335,  0.006569200625916,  0.418967539287788 ]
    mass: 107.868200
    reduced_to: 136
  - symbol: Ag # 147
    coordinates: [  0.792497519633335,  0.206569200625916,  0.418967539287788 ]
    mass: 107.868200
    reduced_to: 136
  - symbol: Ag # 148
    coordinates: [  0.792497519633335,  0.406569200625916,  0.418967539287788 ]
    mass: 107.868200
    reduced_to: 136
  - symbol: Ag # 149
    coordinates: [  0.792497519633335,  0.606569200625916,  0.418967539287788 ]
    mass: 107.868200
    reduced_to: 136
  - symbol: Ag # 150
    coordinates: [  0.792497519633335,  0.806569200625916,  0.418967539287788 ]
    mass: 107.868200
    reduced_to: 136
  - symbol: Ag # 151
    coordinates: [  0.125830852966668,  0.006569200625916,  0.530078650398899 ]
    mass: 107.868200
    reduced_to: 136
  - symbol: Ag # 152
    coordinates: [  0.125830852966668,  0.206569200625916,  0.530078650398899 ]
    mass: 107.868200
    reduced_to: 136
  - symbol: Ag # 153
    coordinates: [  0.125830852966668,  0.406569200625916,  0.530078650398899 ]
    mass: 107.868200
    reduced_to: 136
  - symbol: Ag # 154
    coordinates: [  0.125830852966668,  0.606569200625916,  0.530078650398899 ]
    mass: 107.868200
    reduced_to: 136
  - symbol: Ag # 155
    coordinates: [  0.125830852966668,  0.806569200625916,  0.530078650398899 ]
    mass: 107.868200
    reduced_to: 136
  - symbol: Ag # 156
    coordinates: [  0.459164186300002,  0.006569200625916,  0.307856428176677 ]
    mass: 107.868200
    reduced_to: 136
  - symbol: Ag # 157
    coordinates: [  0.459164186300002,  0.206569200625916,  0.307856428176677 ]
    mass: 107.868200
    reduced_to: 136
  - symbol: Ag # 158
    coordinates: [  0.459164186300002,  0.406569200625916,  0.307856428176677 ]
    mass: 107.868200
    reduced_to: 136
  - symbol: Ag # 159
    coordinates: [  0.459164186300002,  0.606569200625916,  0.307856428176677 ]
    mass: 107.868200
    reduced_to: 136
  - symbol: Ag # 160
    coordinates: [  0.459164186300002,  0.806569200625916,  0.307856428176677 ]
    mass: 107.868200
    reduced_to: 136
  - symbol: Ag # 161
    coordinates: [  0.792497519633335,  0.006569200625916,  0.085634205954454 ]
    mass: 107.868200
    reduced_to: 136
  - symbol: Ag # 162
    coordinates: [  0.792497519633335,  0.206569200625916,  0.085634205954454 ]
    mass: 107.868200
    reduced_to: 136
  - symbol: Ag # 163
    coordinates: [  0.792497519633335,  0.406569200625916,  0.085634205954454 ]
    mass: 107.868200
    reduced_to: 136
  - symbol: Ag # 164
    coordinates: [  0.792497519633335,  0.606569200625916,  0.085634205954454 ]
    mass: 107.868200
    reduced_to: 136
  - symbol: Ag # 165
    coordinates: [  0.792497519633335,  0.806569200625916,  0.085634205954454 ]
    mass: 107.868200
    reduced_to: 136
  - symbol: Ag # 166
    coordinates: [  0.125830852966668,  0.006569200625916,  0.196745317065566 ]
    mass: 107.868200
    reduced_to: 136
  - symbol: Ag # 167
    coordinates: [  0.125830852966668,  0.206569200625916,  0.196745317065566 ]
    mass: 107.868200
    reduced_to: 136
  - symbol: Ag # 168
    coordinates: [  0.125830852966668,  0.406569200625916,  0.196745317065566 ]
    mass: 107.868200
    reduced_to: 136
  - symbol: Ag # 169
    coordinates: [  0.125830852966668,  0.606569200625916,  0.196745317065566 ]
    mass: 107.868200
    reduced_to: 136
  - symbol: Ag # 170
    coordinates: [  0.125830852966668,  0.806569200625916,  0.196745317065566 ]
    mass: 107.868200
    reduced_to: 136
  - symbol: Ag # 171
    coordinates: [  0.459164186300002,  0.006569200625916,  0.974523094843343 ]
    mass: 107.868200
    reduced_to: 136
  - symbol: Ag # 172
    coordinates: [  0.459164186300002,  0.206569200625916,  0.974523094843343 ]
    mass: 107.868200
    reduced_to: 136
  - symbol: Ag # 173
    coordinates: [  0.459164186300002,  0.406569200625916,  0.974523094843343 ]
    mass: 107.868200
    reduced_to: 136
  - symbol: Ag # 174
    coordinates: [  0.459164186300002,  0.606569200625916,  0.974523094843343 ]
    mass: 107.868200
    reduced_to: 136
  - symbol: Ag # 175
    coordinates: [  0.459164186300002,  0.806569200625916,  0.974523094843343 ]
    mass: 107.868200
    reduced_to: 136
  - symbol: Ag # 176
    coordinates: [  0.792497519633335,  0.006569200625916,  0.752300872621121 ]
    mass: 107.868200
    reduced_to: 136
  - symbol: Ag # 177
    coordinates: [  0.792497519633335,  0.206569200625916,  0.752300872621121 ]
    mass: 107.868200
    reduced_to: 136
  - symbol: Ag # 178
    coordinates: [  0.792497519633335,  0.406569200625916,  0.752300872621121 ]
    mass: 107.868200
    reduced_to: 136
  - symbol: Ag # 179
    coordinates: [  0.792497519633335,  0.606569200625916,  0.752300872621121 ]
    mass: 107.868200
    reduced_to: 136
  - symbol: Ag # 180
    coordinates: [  0.792497519633335,  0.806569200625916,  0.752300872621121 ]
    mass: 107.868200
    reduced_to: 136
  - symbol: Ag # 181