phonopy:
  version: "2.27.0"
  frequency_unit_conversion_factor: 15.633302
  symmetry_tolerance: 1.00000e-03

space_group:
  type: "P-3m1"
  number: 164
  Hall_symbol: "-P 3 2\""

primitive_matrix:
- [  1.000000000000000,  0.000000000000000,  0.000000000000000 ]
- [  0.000000000000000,  1.000000000000000,  0.000000000000000 ]
- [ -0.000000000000000, -0.000000000000000,  1.000000000000000 ]

supercell_matrix:
- [   5,  -3,   0 ]
- [   5,   3,   0 ]
- [   0,   0,   1 ]

primitive_cell:
  lattice:
  - [     2.156736665318228,    -3.735577482877910,     0.000000000000004 ] # a
  - [     2.156736665318297,     3.735577482877880,    -0.000000000000006 ] # b
  - [    -0.000000000000017,    -0.000000000000029,    25.078507547878885 ] # c
  points:
  - symbol: Ge # 1
    coordinates: [  0.999999999999995,  0.000000000000005,  0.500000000000000 ]
    mass: 72.640000
  - symbol: Sb # 2
    coordinates: [  0.666666666666659,  0.333333333333340,  0.920615700363224 ]
    mass: 121.760000
  - symbol: Sb # 3
    coordinates: [  0.333333333333328,  0.666666666666674,  0.352131991978740 ]
    mass: 121.760000
  - symbol: Sb # 4
    coordinates: [  0.333333333333327,  0.666666666666669,  0.079384299636776 ]
    mass: 121.760000
  - symbol: Sb # 5
    coordinates: [  0.666666666666661,  0.333333333333335,  0.647868008021260 ]
    mass: 121.760000
  - symbol: Te # 6
    coordinates: [  0.333333333333326,  0.666666666666674,  0.852517135479809 ]
    mass: 127.600000
  - symbol: Te # 7
    coordinates: [  0.666666666666661,  0.333333333333336,  0.147482864520191 ]
    mass: 127.600000
  - symbol: Te # 8
    coordinates: [  0.999999999999995,  0.000000000000001,  0.715516776216660 ]
    mass: 127.600000
  - symbol: Te # 9
    coordinates: [  0.666666666666661,  0.333333333333338,  0.432581487008853 ]
    mass: 127.600000
  - symbol: Te # 10
    coordinates: [  0.333333333333328,  0.666666666666672,  0.567418512991148 ]
    mass: 127.600000
  - symbol: Te # 11
    coordinates: [  0.999999999999993,  0.000000000000003,  0.000000000000000 ]
    mass: 127.600000
  - symbol: Te # 12
    coordinates: [  0.999999999999994,  0.000000000000006,  0.284483223783341 ]
    mass: 127.600000
  reciprocal_lattice: # without 2pi
  - [     0.231831733581723,    -0.133848113790109,     0.000000000000000 ] # a*
  - [     0.231831733581725,     0.133848113790104,     0.000000000000000 ] # b*
  - [     0.000000000000000,     0.000000000000000,     0.039874781148393 ] # c*

unit_cell:
  lattice:
  - [     2.156736665318228,    -3.735577482877910,     0.000000000000004 ] # a
  - [     2.156736665318296,     3.735577482877879,    -0.000000000000006 ] # b
  - [    -0.000000000000017,    -0.000000000000029,    25.078507547878878 ] # c
  points:
  - symbol: Ge # 1
    coordinates: [ -0.000000000000005,  0.000000000000005,  0.500000000000000 ]
    mass: 72.640000
    reduced_to: 1
  - symbol: Sb # 2
    coordinates: [  0.666666666666660,  0.333333333333341,  0.920615700363225 ]
    mass: 121.760000
    reduced_to: 2
  - symbol: Sb # 3
    coordinates: [  0.333333333333328,  0.666666666666674,  0.352131991978740 ]
    mass: 121.760000
    reduced_to: 3
  - symbol: Sb # 4
    coordinates: [  0.333333333333327,  0.666666666666669,  0.079384299636776 ]
    mass: 121.760000
    reduced_to: 4
  - symbol: Sb # 5
    coordinates: [  0.666666666666661,  0.333333333333335,  0.647868008021260 ]
    mass: 121.760000
    reduced_to: 5
  - symbol: Te # 6
    coordinates: [  0.333333333333326,  0.666666666666674,  0.852517135479810 ]
    mass: 127.600000
    reduced_to: 6
  - symbol: Te # 7
    coordinates: [  0.666666666666661,  0.333333333333336,  0.147482864520191 ]
    mass: 127.600000
    reduced_to: 7
  - symbol: Te # 8
    coordinates: [ -0.000000000000005,  0.000000000000003,  0.715516776216660 ]
    mass: 127.600000
    reduced_to: 8
  - symbol: Te # 9
    coordinates: [  0.666666666666661,  0.333333333333339,  0.432581487008853 ]
    mass: 127.600000
    reduced_to: 9
  - symbol: Te # 10
    coordinates: [  0.333333333333328,  0.666666666666672,  0.567418512991148 ]
    mass: 127.600000
    reduced_to: 10
  - symbol: Te # 11
    coordinates: [ -0.000000000000006,  0.000000000000005,  0.000000000000000 ]
    mass: 127.600000
    reduced_to: 11
  - symbol: Te # 12
    coordinates: [ -0.000000000000006,  0.000000000000006,  0.284483223783341 ]
    mass: 127.600000
    reduced_to: 12

supercell:
  lattice:
  - [    21.567366653182621,    -0.000000000000153,    -0.000000000000010 ] # a
  - [     0.000000000000205,    22.413464897267367,    -0.000000000000030 ] # b
  - [    -0.000000000000017,    -0.000000000000029,    25.078507547878878 ] # c
  points:
  - symbol: Ge # 1
    coordinates: [  0.000000000000000,  0.000000000000002,  0.500000000000000 ]
    mass: 72.640000
    reduced_to: 1
  - symbol: Ge # 2
    coordinates: [  0.100000000000000,  0.833333333333335,  0.500000000000000 ]
    mass: 72.640000
    reduced_to: 1
  - symbol: Ge # 3
    coordinates: [  0.200000000000000,  0.666666666666668,  0.500000000000000 ]
    mass: 72.640000
    reduced_to: 1
  - symbol: Ge # 4
    coordinates: [  0.300000000000000,  0.500000000000002,  0.500000000000000 ]
    mass: 72.640000
    reduced_to: 1
  - symbol: Ge # 5
    coordinates: [  0.400000000000000,  0.333333333333335,  0.500000000000000 ]
    mass: 72.640000
    reduced_to: 1
  - symbol: Ge # 6
    coordinates: [  0.500000000000000,  0.166666666666668,  0.500000000000000 ]
    mass: 72.640000
    reduced_to: 1
  - symbol: Ge # 7
    coordinates: [  0.600000000000000,  0.000000000000002,  0.500000000000000 ]
    mass: 72.640000
    reduced_to: 1
  - symbol: Ge # 8
    coordinates: [  0.700000000000000,  0.833333333333335,  0.500000000000000 ]
    mass: 72.640000
    reduced_to: 1
  - symbol: Ge # 9
    coordinates: [  0.100000000000000,  0.166666666666668,  0.500000000000000 ]
    mass: 72.640000
    reduced_to: 1
  - symbol: Ge # 10
    coordinates: [  0.200000000000000,  0.000000000000002,  0.500000000000000 ]
    mass: 72.640000
    reduced_to: 1
  - symbol: Ge # 11
    coordinates: [  0.300000000000000,  0.833333333333335,  0.500000000000000 ]
    mass: 72.640000
    reduced_to: 1
  - symbol: Ge # 12
    coordinates: [  0.400000000000000,  0.666666666666668,  0.500000000000000 ]
    mass: 72.640000
    reduced_to: 1
  - symbol: Ge # 13
    coordinates: [  0.500000000000000,  0.500000000000002,  0.500000000000000 ]
    mass: 72.640000
    reduced_to: 1
  - symbol: Ge # 14
    coordinates: [  0.600000000000000,  0.333333333333335,  0.500000000000000 ]
    mass: 72.640000
    reduced_to: 1
  - symbol: Ge # 15
    coordinates: [  0.700000000000000,  0.166666666666668,  0.500000000000000 ]
    mass: 72.640000
    reduced_to: 1
  - symbol: Ge # 16
    coordinates: [  0.800000000000000,  0.000000000000002,  0.500000000000000 ]
    mass: 72.640000
    reduced_to: 1
  - symbol: Ge # 17
    coordinates: [  0.200000000000000,  0.333333333333335,  0.500000000000000 ]
    mass: 72.640000
    reduced_to: 1
  - symbol: Ge # 18
    coordinates: [  0.300000000000000,  0.166666666666668,  0.500000000000000 ]
    mass: 72.640000
    reduced_to: 1
  - symbol: Ge # 19
    coordinates: [  0.400000000000000,  0.000000000000002,  0.500000000000000 ]
    mass: 72.640000
    reduced_to: 1
  - symbol: Ge # 20
    coordinates: [  0.500000000000000,  0.833333333333335,  0.500000000000000 ]
    mass: 72.640000
    reduced_to: 1
  - symbol: Ge # 21
    coordinates: [  0.600000000000000,  0.666666666666668,  0.500000000000000 ]
    mass: 72.640000
    reduced_to: 1
  - symbol: Ge # 22
    coordinates: [  0.700000000000000,  0.500000000000002,  0.500000000000000 ]
    mass: 72.640000
    reduced_to: 1
  - symbol: Ge # 23
    coordinates: [  0.800000000000000,  0.333333333333335,  0.500000000000000 ]
    mass: 72.640000
    reduced_to: 1
  - symbol: Ge # 24
    coordinates: [  0.900000000000000,  0.166666666666668,  0.500000000000000 ]
    mass: 72.640000
    reduced_to: 1
  - symbol: Ge # 25
    coordinates: [  0.800000000000000,  0.666666666666668,  0.500000000000000 ]
    mass: 72.640000
    reduced_to: 1
  - symbol: Ge # 26
    coordinates: [  0.900000000000000,  0.500000000000002,  0.500000000000000 ]
    mass: 72.640000
    reduced_to: 1
  - symbol: Ge # 27
    coordinates: [  0.000000000000000,  0.333333333333335,  0.500000000000000 ]
    mass: 72.640000
    reduced_to: 1
  - symbol: Ge # 28
    coordinates: [  0.900000000000000,  0.833333333333335,  0.500000000000000 ]
    mass: 72.640000
    reduced_to: 1
  - symbol: Ge # 29
    coordinates: [  0.000000000000000,  0.666666666666668,  0.500000000000000 ]
    mass: 72.640000
    reduced_to: 1
  - symbol: Ge # 30
    coordinates: [  0.100000000000000,  0.500000000000002,  0.500000000000000 ]
    mass: 72.640000
    reduced_to: 1
  - symbol: Sb # 31
    coordinates: [  0.100000000000000,  0.944444444444447,  0.920615700363225 ]
    mass: 121.760000
    reduced_to: 31
  - symbol: Sb # 32
    coordinates: [  0.200000000000000,  0.777777777777780,  0.920615700363225 ]
    mass: 121.760000
    reduced_to: 31
  - symbol: Sb # 33
    coordinates: [  0.300000000000000,  0.611111111111114,  0.920615700363225 ]
    mass: 121.760000
    reduced_to: 31
  - symbol: Sb # 34
    coordinates: [  0.400000000000000,  0.444444444444447,  0.920615700363225 ]
    mass: 121.760000
    reduced_to: 31
  - symbol: Sb # 35
    coordinates: [  0.500000000000000,  0.277777777777780,  0.920615700363225 ]
    mass: 121.760000
    reduced_to: 31
  - symbol: Sb # 36
    coordinates: [  0.600000000000000,  0.111111111111113,  0.920615700363225 ]
    mass: 121.760000
    reduced_to: 31
  - symbol: Sb # 37
    coordinates: [  0.700000000000000,  0.944444444444447,  0.920615700363225 ]
    mass: 121.760000
    reduced_to: 31
  - symbol: Sb # 38
    coordinates: [  0.800000000000000,  0.777777777777780,  0.920615700363225 ]
    mass: 121.760000
    reduced_to: 31
  - symbol: Sb # 39
    coordinates: [  0.200000000000000,  0.111111111111114,  0.920615700363225 ]
    mass: 121.760000
    reduced_to: 31
  - symbol: Sb # 40
    coordinates: [  0.300000000000000,  0.944444444444447,  0.920615700363225 ]
    mass: 121.760000
    reduced_to: 31
  - symbol: Sb # 41
    coordinates: [  0.400000000000000,  0.777777777777780,  0.920615700363225 ]
    mass: 121.760000
    reduced_to: 31
  - symbol: Sb # 42
    coordinates: [  0.500000000000000,  0.611111111111114,  0.920615700363225 ]
    mass: 121.760000
    reduced_to: 31
  - symbol: Sb # 43
    coordinates: [  0.600000000000000,  0.444444444444447,  0.920615700363225 ]
    mass: 121.760000
    reduced_to: 31
  - symbol: Sb # 44
    coordinates: [  0.700000000000000,  0.277777777777780,  0.920615700363225 ]
    mass: 121.760000
    reduced_to: 31
  - symbol: Sb # 45
    coordinates: [  0.800000000000000,  0.111111111111114,  0.920615700363225 ]
    mass: 121.760000
    reduced_to: 31
  - symbol: Sb # 46
    coordinates: [  0.900000000000000,  0.944444444444447,  0.920615700363225 ]
    mass: 121.760000
    reduced_to: 31
  - symbol: Sb # 47
    coordinates: [  0.300000000000000,  0.277777777777780,  0.920615700363225 ]
    mass: 121.760000
    reduced_to: 31
  - symbol: Sb # 48
    coordinates: [  0.400000000000000,  0.111111111111114,  0.920615700363225 ]
    mass: 121.760000
    reduced_to: 31
  - symbol: Sb # 49
    coordinates: [  0.500000000000000,  0.944444444444447,  0.920615700363225 ]
    mass: 121.760000
    reduced_to: 31
  - symbol: Sb # 50
    coordinates: [  0.600000000000000,  0.777777777777780,  0.920615700363225 ]
    mass: 121.760000
    reduced_to: 31
  - symbol: Sb # 51
    coordinates: [  0.700000000000000,  0.611111111111114,  0.920615700363225 ]
    mass: 121.760000
    reduced_to: 31
  - symbol: Sb # 52
    coordinates: [  0.800000000000000,  0.444444444444447,  0.920615700363225 ]
    mass: 121.760000
    reduced_to: 31
  - symbol: Sb # 53
    coordinates: [  0.900000000000000,  0.277777777777780,  0.920615700363225 ]
    mass: 121.760000
    reduced_to: 31
  - symbol: Sb # 54
    coordinates: [  0.000000000000000,  0.111111111111114,  0.920615700363225 ]
    mass: 121.760000
    reduced_to: 31
  - symbol: Sb # 55
    coordinates: [  0.900000000000000,  0.611111111111113,  0.920615700363225 ]
    mass: 121.760000
    reduced_to: 31
  - symbol: Sb # 56
    coordinates: [  0.000000000000000,  0.444444444444447,  0.920615700363225 ]
    mass: 121.760000
    reduced_to: 31
  - symbol: Sb # 57
    coordinates: [  0.100000000000000,  0.277777777777780,  0.920615700363225 ]
    mass: 121.760000
    reduced_to: 31
  - symbol: Sb # 58
    coordinates: [  0.000000000000000,  0.777777777777780,  0.920615700363225 ]
    mass: 121.760000
    reduced_to: 31
  - symbol: Sb # 59
    coordinates: [  0.100000000000000,  0.611111111111114,  0.920615700363225 ]
    mass: 121.760000
    reduced_to: 31
  - symbol: Sb # 60
    coordinates: [  0.200000000000000,  0.444444444444447,  0.920615700363225 ]
    mass: 121.760000
    reduced_to: 31
  - symbol: Sb # 61
    coordinates: [  0.100000000000000,  0.055555555555558,  0.352131991978740 ]
    mass: 121.760000
    reduced_to: 61
  - symbol: Sb # 62
    coordinates: [  0.200000000000000,  0.888888888888891,  0.352131991978740 ]
    mass: 121.760000
    reduced_to: 61
  - symbol: Sb # 63
    coordinates: [  0.300000000000000,  0.722222222222224,  0.352131991978740 ]
    mass: 121.760000
    reduced_to: 61
  - symbol: Sb # 64
    coordinates: [  0.400000000000000,  0.555555555555558,  0.352131991978740 ]
    mass: 121.760000
    reduced_to: 61
  - symbol: Sb # 65
    coordinates: [  0.500000000000000,  0.388888888888891,  0.352131991978740 ]
    mass: 121.760000
    reduced_to: 61
  - symbol: Sb # 66
    coordinates: [  0.600000000000000,  0.222222222222224,  0.352131991978740 ]
    mass: 121.760000
    reduced_to: 61
  - symbol: Sb # 67
    coordinates: [  0.700000000000000,  0.055555555555558,  0.352131991978740 ]
    mass: 121.760000
    reduced_to: 61
  - symbol: Sb # 68
    coordinates: [  0.800000000000000,  0.888888888888891,  0.352131991978740 ]
    mass: 121.760000
    reduced_to: 61
  - symbol: Sb # 69
    coordinates: [  0.200000000000000,  0.222222222222224,  0.352131991978740 ]
    mass: 121.760000
    reduced_to: 61
  - symbol: Sb # 70
    coordinates: [  0.300000000000000,  0.055555555555558,  0.352131991978740 ]
    mass: 121.760000
    reduced_to: 61
  - symbol: Sb # 71
    coordinates: [  0.400000000000000,  0.888888888888891,  0.352131991978740 ]
    mass: 121.760000
    reduced_to: 61
  - symbol: Sb # 72
    coordinates: [  0.500000000000000,  0.722222222222224,  0.352131991978740 ]
    mass: 121.760000
    reduced_to: 61
  - symbol: Sb # 73
    coordinates: [  0.600000000000000,  0.555555555555558,  0.352131991978740 ]
    mass: 121.760000
    reduced_to: 61
  - symbol: Sb # 74
    coordinates: [  0.700000000000000,  0.388888888888891,  0.352131991978740 ]
    mass: 121.760000
    reduced_to: 61
  - symbol: Sb # 75
    coordinates: [  0.800000000000000,  0.222222222222224,  0.352131991978740 ]
    mass: 121.760000
    reduced_to: 61
  - symbol: Sb # 76
    coordinates: [  0.900000000000000,  0.055555555555558,  0.352131991978740 ]
    mass: 121.760000
    reduced_to: 61
  - symbol: Sb # 77
    coordinates: [  0.300000000000000,  0.388888888888891,  0.352131991978740 ]
    mass: 121.760000
    reduced_to: 61
  - symbol: Sb # 78
    coordinates: [  0.400000000000000,  0.222222222222224,  0.352131991978740 ]
    mass: 121.760000
    reduced_to: 61
  - symbol: Sb # 79
    coordinates: [  0.500000000000000,  0.055555555555558,  0.352131991978740 ]
    mass: 121.760000
    reduced_to: 61
  - symbol: Sb # 80
    coordinates: [  0.600000000000000,  0.888888888888891,  0.352131991978740 ]
    mass: 121.760000
    reduced_to: 61
  - symbol: Sb # 81
    coordinates: [  0.700000000000000,  0.722222222222224,  0.352131991978740 ]
    mass: 121.760000
    reduced_to: 61
  - symbol: Sb # 82
    coordinates: [  0.800000000000000,  0.555555555555558,  0.352131991978740 ]
    mass: 121.760000
    reduced_to: 61
  - symbol: Sb # 83
    coordinates: [  0.900000000000000,  0.388888888888891,  0.352131991978740 ]
    mass: 121.760000
    reduced_to: 61
  - symbol: Sb # 84
    coordinates: [  0.000000000000000,  0.222222222222224,  0.352131991978740 ]
    mass: 121.760000
    reduced_to: 61
  - symbol: Sb # 85
    coordinates: [  0.900000000000000,  0.722222222222224,  0.352131991978740 ]
    mass: 121.760000
    reduced_to: 61
  - symbol: Sb # 86
    coordinates: [  0.000000000000000,  0.555555555555558,  0.352131991978740 ]
    mass: 121.760000
    reduced_to: 61
  - symbol: Sb # 87
    coordinates: [  0.100000000000000,  0.388888888888891,  0.352131991978740 ]
    mass: 121.760000
    reduced_to: 61
  - symbol: Sb # 88
    coordinates: [  0.000000000000000,  0.888888888888891,  0.352131991978740 ]
    mass: 121.760000
    reduced_to: 61
  - symbol: Sb # 89
    coordinates: [  0.100000000000000,  0.722222222222224,  0.352131991978740 ]
    mass: 121.760000
    reduced_to: 61
  - symbol: Sb # 90
    coordinates: [  0.200000000000000,  0.555555555555558,  0.352131991978740 ]
    mass: 121.760000
    reduced_to: 61
  - symbol: Sb # 91
    coordinates: [  0.100000000000000,  0.055555555555557,  0.079384299636776 ]
    mass: 121.760000
    reduced_to: 91
  - symbol: Sb # 92
    coordinates: [  0.200000000000000,  0.888888888888890,  0.079384299636776 ]
    mass: 121.760000
    reduced_to: 91
  - symbol: Sb # 93
    coordinates: [  0.300000000000000,  0.722222222222224,  0.079384299636776 ]
    mass: 121.760000
    reduced_to: 91
  - symbol: Sb # 94
    coordinates: [  0.400000000000000,  0.555555555555557,  0.079384299636776 ]
    mass: 121.760000
    reduced_to: 91
  - symbol: Sb # 95
    coordinates: [  0.500000000000000,  0.388888888888890,  0.079384299636776 ]
    mass: 121.760000
    reduced_to: 91
  - symbol: Sb # 96
    coordinates: [  0.600000000000000,  0.222222222222224,  0.079384299636776 ]
    mass: 121.760000
    reduced_to: 91
  - symbol: Sb # 97
    coordinates: [  0.700000000000000,  0.055555555555557,  0.079384299636776 ]
    mass: 121.760000
    reduced_to: 91
  - symbol: Sb # 98
    coordinates: [  0.800000000000000,  0.888888888888890,  0.079384299636776 ]
    mass: 121.760000
    reduced_to: 91
  - symbol: Sb # 99
    coordinates: [  0.200000000000000,  0.222222222222224,  0.079384299636776 ]
    mass: 121.760000
    reduced_to: 91
  - symbol: Sb # 100
    coordinates: [  0.300000000000000,  0.055555555555557,  0.079384299636776 ]
    mass: 121.760000
    reduced_to: 91
  - symbol: Sb # 101
    coordinates: [  0.400000000000000,  0.888888888888890,  0.079384299636776 ]
    mass: 121.760000
    reduced_to: 91
  - symbol: Sb # 102
    coordinates: [  0.500000000000000,  0.722222222222224,  0.079384299636776 ]
    mass: 121.760000
    reduced_to: 91
  - symbol: Sb # 103
    coordinates: [  0.600000000000000,  0.555555555555557,  0.079384299636776 ]
    mass: 121.760000
    reduced_to: 91
  - symbol: Sb # 104
    coordinates: [  0.700000000000000,  0.388888888888890,  0.079384299636776 ]
    mass: 121.760000
    reduced_to: 91
  - symbol: Sb # 105
    coordinates: [  0.800000000000000,  0.222222222222224,  0.079384299636776 ]
    mass: 121.760000
    reduced_to: 91
  - symbol: Sb # 106
    coordinates: [  0.900000000000000,  0.055555555555557,  0.079384299636776 ]
    mass: 121.760000
    reduced_to: 91
  - symbol: Sb # 107
    coordinates: [  0.300000000000000,  0.388888888888890,  0.079384299636776 ]
    mass: 121.760000
    reduced_to: 91
  - symbol: Sb # 108
    coordinates: [  0.400000000000000,  0.222222222222224,  0.079384299636776 ]
    mass: 121.760000
    reduced_to: 91
  - symbol: Sb # 109
    coordinates: [  0.500000000000000,  0.055555555555557,  0.079384299636776 ]
    mass: 121.760000
    reduced_to: 91
  - symbol: Sb # 110
    coordinates: [  0.600000000000000,  0.888888888888890,  0.079384299636776 ]
    mass: 121.760000
    reduced_to: 91
  - symbol: Sb # 111
    coordinates: [  0.700000000000000,  0.722222222222224,  0.079384299636776 ]
    mass: 121.760000
    reduced_to: 91
  - symbol: Sb # 112
    coordinates: [  0.800000000000000,  0.555555555555557,  0.079384299636776 ]
    mass: 121.760000
    reduced_to: 91
  - symbol: Sb # 113
    coordinates: [  0.900000000000000,  0.388888888888890,  0.079384299636776 ]
    mass: 121.760000
    reduced_to: 91
  - symbol: Sb # 114
    coordinates: [  1.000000000000000,  0.222222222222224,  0.079384299636776 ]
    mass: 121.760000
    reduced_to: 91
  - symbol: Sb # 115
    coordinates: [  0.900000000000000,  0.722222222222223,  0.079384299636776 ]
    mass: 121.760000
    reduced_to: 91
  - symbol: Sb # 116
    coordinates: [  1.000000000000000,  0.555555555555557,  0.079384299636776 ]
    mass: 121.760000
    reduced_to: 91
  - symbol: Sb # 117
    coordinates: [  0.100000000000000,  0.388888888888890,  0.079384299636776 ]
    mass: 121.760000
    reduced_to: 91
  - symbol: Sb # 118
    coordinates: [  1.000000000000000,  0.888888888888890,  0.079384299636776 ]
    mass: 121.760000
    reduced_to: 91
  - symbol: Sb # 119
    coordinates: [  0.100000000000000,  0.722222222222224,  0.079384299636776 ]
    mass: 121.760000
    reduced_to: 91
  - symbol: Sb # 120
    coordinates: [  0.200000000000000,  0.555555555555557,  0.079384299636776 ]
    mass: 121.760000
    reduced_to: 91
  - symbol: Sb # 121
    coordinates: [  0.100000000000000,  0.944444444444446,  0.647868008021260 ]
    mass: 121.760000
    reduced_to: 121
  - symbol: Sb # 122
    coordinates: [  0.200000000000000,  0.777777777777779,  0.647868008021260 ]
    mass: 121.760000
    reduced_to: 121
  - symbol: Sb # 123
    coordinates: [  0.300000000000000,  0.611111111111112,  0.647868008021260 ]
    mass: 121.760000
    reduced_to: 121
  - symbol: Sb # 124
    coordinates: [  0.400000000000000,  0.444444444444446,  0.647868008021260 ]
    mass: 121.760000
    reduced_to: 121
  - symbol: Sb # 125
    coordinates: [  0.500000000000000,  0.277777777777779,  0.647868008021260 ]
    mass: 121.760000
    reduced_to: 121
  - symbol: Sb # 126
    coordinates: [  0.600000000000000,  0.111111111111112,  0.647868008021260 ]
    mass: 121.760000
    reduced_to: 121
  - symbol: Sb # 127
    coordinates: [  0.700000000000000,  0.944444444444446,  0.647868008021260 ]
    mass: 121.760000
    reduced_to: 121
  - symbol: Sb # 128
    coordinates: [  0.800000000000000,  0.777777777777779,  0.647868008021260 ]
    mass: 121.760000
    reduced_to: 121
  - symbol: Sb # 129
    coordinates: [  0.200000000000000,  0.111111111111112,  0.647868008021260 ]
    mass: 121.760000
    reduced_to: 121
  - symbol: Sb # 130
    coordinates: [  0.300000000000000,  0.944444444444446,  0.647868008021260 ]
    mass: 121.760000
    reduced_to: 121
  - symbol: Sb # 131
    coordinates: [  0.400000000000000,  0.777777777777779,  0.647868008021260 ]
    mass: 121.760000
    reduced_to: 121
  - symbol: Sb # 132
    coordinates: [  0.500000000000000,  0.611111111111112,  0.647868008021260 ]
    mass: 121.760000
    reduced_to: 121
  - symbol: Sb # 133
    coordinates: [  0.600000000000000,  0.444444444444446,  0.647868008021260 ]
    mass: 121.760000
    reduced_to: 121
  - symbol: Sb # 134
    coordinates: [  0.700000000000000,  0.277777777777779,  0.647868008021260 ]
    mass: 121.760000
    reduced_to: 121
  - symbol: Sb # 135
    coordinates: [  0.800000000000000,  0.111111111111112,  0.647868008021260 ]
    mass: 121.760000
    reduced_to: 121
  - symbol: Sb # 136
    coordinates: [  0.900000000000000,  0.944444444444446,  0.647868008021260 ]
    mass: 121.760000
    reduced_to: 121
  - symbol: Sb # 137
    coordinates: [  0.300000000000000,  0.277777777777779,  0.647868008021260 ]
    mass: 121.760000
    reduced_to: 121
  - symbol: Sb # 138
    coordinates: [  0.400000000000000,  0.111111111111112,  0.647868008021260 ]
    mass: 121.760000
    reduced_to: 121
  - symbol: Sb # 139
    coordinates: [  0.500000000000000,  0.944444444444446,  0.647868008021260 ]
    mass: 121.760000
    reduced_to: 121
  - symbol: Sb # 140
    coordinates: [  0.600000000000000,  0.777777777777779,  0.647868008021260 ]
    mass: 121.760000
    reduced_to: 121
  - symbol: Sb # 141
    coordinates: [  0.700000000000000,  0.611111111111112,  0.647868008021260 ]
    mass: 121.760000
    reduced_to: 121
  - symbol: Sb # 142
    coordinates: [  0.800000000000000,  0.444444444444446,  0.647868008021260 ]
    mass: 121.760000
    reduced_to: 121
  - symbol: Sb # 143
    coordinates: [  0.900000000000000,  0.277777777777779,  0.647868008021260 ]
    mass: 121.760000
    reduced_to: 121
  - symbol: Sb # 144
    coordinates: [  1.000000000000000,  0.111111111111112,  0.647868008021260 ]
    mass: 121.760000
    reduced_to: 121
  - symbol: Sb # 145
    coordinates: [  0.900000000000000,  0.611111111111112,  0.647868008021260 ]
    mass: 121.760000
    reduced_to: 121
  - symbol: Sb # 146
    coordinates: [  1.000000000000000,  0.444444444444446,  0.647868008021260 ]
    mass: 121.760000
    reduced_to: 121
  - symbol: Sb # 147
    coordinates: [  0.100000000000000,  0.277777777777779,  0.647868008021260 ]
    mass: 121.760000
    reduced_to: 121
  - symbol: Sb # 148
    coordinates: [  1.000000000000000,  0.777777777777779,  0.647868008021260 ]
    mass: 121.760000
    reduced_to: 121
  - symbol: Sb # 149
    coordinates: [  0.100000000000000,  0.611111111111112,  0.647868008021260 ]
    mass: 121.760000
    reduced_to: 121
  - symbol: Sb # 150
    coordinates: [  0.200000000000000,  0.444444444444446,  0.647868008021260 ]
    mass: 121.760000
    reduced_to: 121
  - symbol: Te # 151
    coordinates: [  0.100000000000000,  0.055555555555558,  0.852517135479810 ]
    mass: 127.600000
    reduced_to: 151
  - symbol: Te # 152
    coordinates: [  0.200000000000000,  0.888888888888891,  0.852517135479810 ]
    mass: 127.600000
    reduced_to: 151
  - symbol: Te # 153
    coordinates: [  0.300000000000000,  0.722222222222225,  0.852517135479810 ]
    mass: 127.600000
    reduced_to: 151
  - symbol: Te # 154
    coordinates: [  0.400000000000000,  0.555555555555558,  0.852517135479810 ]
    mass: 127.600000
    reduced_to: 151
  - symbol: Te # 155
    coordinates: [  0.500000000000000,  0.388888888888891,  0.852517135479810 ]
    mass: 127.600000
    reduced_to: 151
  - symbol: Te # 156
    coordinates: [  0.600000000000000,  0.222222222222225,  0.852517135479810 ]
    mass: 127.600000
    reduced_to: 151
  - symbol: Te # 157
    coordinates: [  0.700000000000000,  0.055555555555558,  0.852517135479810 ]
    mass: 127.600000
    reduced_to: 151
  - symbol: Te # 158
    coordinates: [  0.800000000000000,  0.888888888888891,  0.852517135479810 ]
    mass: 127.600000
    reduced_to: 151
  - symbol: Te # 159
    coordinates: [  0.200000000000000,  0.222222222222225,  0.852517135479810 ]
    mass: 127.600000
    reduced_to: 151
  - symbol: Te # 160
    coordinates: [  0.300000000000000,  0.055555555555558,  0.852517135479810 ]
    mass: 127.600000
    reduced_to: 151
  - symbol: Te # 161
    coordinates: [  0.400000000000000,  0.888888888888891,  0.852517135479810 ]
    mass: 127.600000
    reduced_to: 151
  - symbol: Te # 162
    coordinates: [  0.500000000000000,  0.722222222222225,  0.852517135479810 ]
    mass: 127.600000
    reduced_to: 151
  - symbol: Te # 163
    coordinates: [  0.600000000000000,  0.555555555555558,  0.852517135479810 ]
    mass: 127.600000
    reduced_to: 151
  - symbol: Te # 164
    coordinates: [  0.700000000000000,  0.388888888888891,  0.852517135479810 ]
    mass: 127.600000
    reduced_to: 151
  - symbol: Te # 165
    coordinates: [  0.800000000000000,  0.222222222222225,  0.852517135479810 ]
    mass: 127.600000
    reduced_to: 151
  - symbol: Te # 166
    coordinates: [  0.900000000000000,  0.055555555555558,  0.852517135479810 ]
    mass: 127.600000
    reduced_to: 151
  - symbol: Te # 167
    coordinates: [  0.300000000000000,  0.388888888888891,  0.852517135479810 ]
    mass: 127.600000
    reduced_to: 151
  - symbol: Te # 168
    coordinates: [  0.400000000000000,  0.222222222222225,  0.852517135479810 ]
    mass: 127.600000
    reduced_to: 151
  - symbol: Te # 169
    coordinates: [  0.500000000000000,  0.055555555555558,  0.852517135479810 ]
    mass: 127.600000
    reduced_to: 151
  - symbol: Te # 170
    coordinates: [  0.600000000000000,  0.888888888888891,  0.852517135479810 ]
    mass: 127.600000
    reduced_to: 151
  - symbol: Te # 171
    coordinates: [  0.700000000000000,  0.722222222222225,  0.852517135479810 ]
    mass: 127.600000
    reduced_to: 151
  - symbol: Te # 172
    coordinates: [  0.800000000000000,  0.555555555555558,  0.852517135479810 ]
    mass: 127.600000
    reduced_to: 151
  - symbol: Te # 173
    coordinates: [  0.900000000000000,  0.388888888888891,  0.852517135479810 ]
    mass: 127.600000
    reduced_to: 151
  - symbol: Te # 174
    coordinates: [  0.000000000000000,  0.222222222222225,  0.852517135479810 ]
    mass: 127.600000
    reduced_to: 151
  - symbol: Te # 175
    coordinates: [  0.900000000000000,  0.722222222222225,  0.852517135479810 ]
    mass: 127.600000
    reduced_to: 151
  - symbol: Te # 176
    coordinates: [  0.000000000000000,  0.555555555555558,  0.852517135479810 ]
    mass: 127.600000
    reduced_to: 151
  - symbol: Te # 177
    coordinates: [  0.100000000000000,  0.388888888888891,  0.852517135479810 ]
    mass: 127.600000
    reduced_to: 151
  - symbol: Te # 178
    coordinates: [  0.000000000000000,  0.888888888888891,  0.852517135479810 ]
    mass: 127.600000
    reduced_to: 151
  - symbol: Te # 179
    coordinates: [  0.100000000000000,  0.722222222222225,  0.852517135479810 ]
    mass: 127.600000
    reduced_to: 151
  - symbol: Te # 180
    coordinates: [  0.200000000000000,  0.555555555555558,  0.852517135479810 ]
    mass: 127.600000
    reduced_to: 151
  - symbol: Te # 181