phonopy:
  version: "2.27.0"
  frequency_unit_conversion_factor: 15.633302
  symmetry_tolerance: 1.00000e-04

space_group:
  type: "F-43m"
  number: 216
  Hall_symbol: "F -4 2 3"

primitive_matrix:
- [  0.000000000000000,  0.500000000000000,  0.500000000000000 ]
- [  0.500000000000000,  0.000000000000000,  0.500000000000000 ]
- [  0.500000000000000,  0.500000000000000,  0.000000000000000 ]

supercell_matrix:
- [   4,   0,   0 ]
- [   0,   4,   0 ]
- [   0,   0,   4 ]

primitive_cell:
  lattice:
  - [    -0.000000000000000,     3.258096865810606,     3.258096865810561 ] # a
  - [     3.258096865810569,    -0.000000000000001,     3.258096865810561 ] # b
  - [     3.258096865810569,     3.258096865810607,     0.000000000000000 ] # c
  points:
  - symbol: Li # 1
    coordinates: [  0.250000000000000,  0.249999999999999,  0.250000000000000 ]
    mass: 6.941000
  - symbol: Cd # 2
    coordinates: [  0.499999999999999,  0.500000000000001,  0.500000000000001 ]
    mass: 112.411000
  - symbol: Sb # 3
    coordinates: [  0.000000000000001,  0.999999999999999,  1.000000000000000 ]
    mass: 121.760000
  reciprocal_lattice: # without 2pi
  - [    -0.153463822775449,     0.153463822775447,     0.153463822775450 ] # a*
  - [     0.153463822775449,    -0.153463822775447,     0.153463822775450 ] # b*
  - [     0.153463822775449,     0.153463822775447,    -0.153463822775450 ] # c*

unit_cell:
  lattice:
  - [     6.516193731621138,     0.000000000000000,     0.000000000000000 ] # a
  - [    -0.000000000000000,     6.516193731621213,     0.000000000000001 ] # b
  - [    -0.000000000000000,    -0.000000000000003,     6.516193731621120 ] # c
  points:
  - symbol: Li # 1
    coordinates: [  0.250000000000000,  0.250000000000000,  0.250000000000000 ]
    mass: 6.941000
    reduced_to: 1
  - symbol: Li # 2
    coordinates: [  0.250000000000000,  0.750000000000000,  0.750000000000000 ]
    mass: 6.941000
    reduced_to: 1
  - symbol: Li # 3
    coordinates: [  0.750000000000000,  0.250000000000000,  0.750000000000000 ]
    mass: 6.941000
    reduced_to: 1
  - symbol: Li # 4
    coordinates: [  0.750000000000000,  0.750000000000000,  0.250000000000000 ]
    mass: 6.941000
    reduced_to: 1
  - symbol: Cd # 5
    coordinates: [  0.500000000000001,  0.000000000000000,  0.000000000000000 ]
    mass: 112.411000
    reduced_to: 5
  - symbol: Cd # 6
    coordinates: [  0.500000000000000,  0.500000000000000,  0.500000000000000 ]
    mass: 112.411000
    reduced_to: 5
  - symbol: Cd # 7
    coordinates: [  0.000000000000001, -0.000000000000000,  0.500000000000000 ]
    mass: 112.411000
    reduced_to: 5
  - symbol: Cd # 8
    coordinates: [  0.000000000000000,  0.500000000000000, -0.000000000000000 ]
    mass: 112.411000
    reduced_to: 5
  - symbol: Sb # 9
    coordinates: [ -0.000000000000001,  0.000000000000000,  0.000000000000000 ]
    mass: 121.760000
    reduced_to: 9
  - symbol: Sb # 10
    coordinates: [ -0.000000000000001,  0.500000000000000,  0.500000000000000 ]
    mass: 121.760000
    reduced_to: 9
  - symbol: Sb # 11
    coordinates: [  0.499999999999999,  0.000000000000000,  0.500000000000000 ]
    mass: 121.760000
    reduced_to: 9
  - symbol: Sb # 12
    coordinates: [  0.499999999999999,  0.500000000000000, -0.000000000000000 ]
    mass: 121.760000
    reduced_to: 9

supercell:
  lattice:
  - [    26.064774926484553,     0.000000000000000,     0.000000000000001 ] # a
  - [    -0.000000000000002,    26.064774926484851,     0.000000000000002 ] # b
  - [    -0.000000000000002,    -0.000000000000011,    26.064774926484478 ] # c
  points:
  - symbol: Li # 1
    coordinates: [  0.062500000000000,  0.062500000000000,  0.062500000000000 ]
    mass: 6.941000
    reduced_to: 1
  - symbol: Li # 2
    coordinates: [  0.312500000000000,  0.062500000000000,  0.062500000000000 ]
    mass: 6.941000
    reduced_to: 1
  - symbol: Li # 3
    coordinates: [  0.562500000000000,  0.062500000000000,  0.062500000000000 ]
    mass: 6.941000
    reduced_to: 1
  - symbol: Li # 4
    coordinates: [  0.812500000000000,  0.062500000000000,  0.062500000000000 ]
    mass: 6.941000
    reduced_to: 1
  - symbol: Li # 5
    coordinates: [  0.062500000000000,  0.312500000000000,  0.062500000000000 ]
    mass: 6.941000
    reduced_to: 1
  - symbol: Li # 6
    coordinates: [  0.312500000000000,  0.312500000000000,  0.062500000000000 ]
    mass: 6.941000
    reduced_to: 1
  - symbol: Li # 7
    coordinates: [  0.562500000000000,  0.312500000000000,  0.062500000000000 ]
    mass: 6.941000
    reduced_to: 1
  - symbol: Li # 8
    coordinates: [  0.812500000000000,  0.312500000000000,  0.062500000000000 ]
    mass: 6.941000
    reduced_to: 1
  - symbol: Li # 9
    coordinates: [  0.062500000000000,  0.562500000000000,  0.062500000000000 ]
    mass: 6.941000
    reduced_to: 1
  - symbol: Li # 10
    coordinates: [  0.312500000000000,  0.562500000000000,  0.062500000000000 ]
    mass: 6.941000
    reduced_to: 1
  - symbol: Li # 11
    coordinates: [  0.562500000000000,  0.562500000000000,  0.062500000000000 ]
    mass: 6.941000
    reduced_to: 1
  - symbol: Li # 12
    coordinates: [  0.812500000000000,  0.562500000000000,  0.062500000000000 ]
    mass: 6.941000
    reduced_to: 1
  - symbol: Li # 13
    coordinates: [  0.062500000000000,  0.812500000000000,  0.062500000000000 ]
    mass: 6.941000
    reduced_to: 1
  - symbol: Li # 14
    coordinates: [  0.312500000000000,  0.812500000000000,  0.062500000000000 ]
    mass: 6.941000
    reduced_to: 1
  - symbol: Li # 15
    coordinates: [  0.562500000000000,  0.812500000000000,  0.062500000000000 ]
    mass: 6.941000
    reduced_to: 1
  - symbol: Li # 16
    coordinates: [  0.812500000000000,  0.812500000000000,  0.062500000000000 ]
    mass: 6.941000
    reduced_to: 1
  - symbol: Li # 17
    coordinates: [  0.062500000000000,  0.062500000000000,  0.312500000000000 ]
    mass: 6.941000
    reduced_to: 1
  - symbol: Li # 18
    coordinates: [  0.312500000000000,  0.062500000000000,  0.312500000000000 ]
    mass: 6.941000
    reduced_to: 1
  - symbol: Li # 19
    coordinates: [  0.562500000000000,  0.062500000000000,  0.312500000000000 ]
    mass: 6.941000
    reduced_to: 1
  - symbol: Li # 20
    coordinates: [  0.812500000000000,  0.062500000000000,  0.312500000000000 ]
    mass: 6.941000
    reduced_to: 1
  - symbol: Li # 21
    coordinates: [  0.062500000000000,  0.312500000000000,  0.312500000000000 ]
    mass: 6.941000
    reduced_to: 1
  - symbol: Li # 22
    coordinates: [  0.312500000000000,  0.312500000000000,  0.312500000000000 ]
    mass: 6.941000
    reduced_to: 1
  - symbol: Li # 23
    coordinates: [  0.562500000000000,  0.312500000000000,  0.312500000000000 ]
    mass: 6.941000
    reduced_to: 1
  - symbol: Li # 24
    coordinates: [  0.812500000000000,  0.312500000000000,  0.312500000000000 ]
    mass: 6.941000
    reduced_to: 1
  - symbol: Li # 25
    coordinates: [  0.062500000000000,  0.562500000000000,  0.312500000000000 ]
    mass: 6.941000
    reduced_to: 1
  - symbol: Li # 26
    coordinates: [  0.312500000000000,  0.562500000000000,  0.312500000000000 ]
    mass: 6.941000
    reduced_to: 1
  - symbol: Li # 27
    coordinates: [  0.562500000000000,  0.562500000000000,  0.312500000000000 ]
    mass: 6.941000
    reduced_to: 1
  - symbol: Li # 28
    coordinates: [  0.812500000000000,  0.562500000000000,  0.312500000000000 ]
    mass: 6.941000
    reduced_to: 1
  - symbol: Li # 29
    coordinates: [  0.062500000000000,  0.812500000000000,  0.312500000000000 ]
    mass: 6.941000
    reduced_to: 1
  - symbol: Li # 30
    coordinates: [  0.312500000000000,  0.812500000000000,  0.312500000000000 ]
    mass: 6.941000
    reduced_to: 1
  - symbol: Li # 31
    coordinates: [  0.562500000000000,  0.812500000000000,  0.312500000000000 ]
    mass: 6.941000
    reduced_to: 1
  - symbol: Li # 32
    coordinates: [  0.812500000000000,  0.812500000000000,  0.312500000000000 ]
    mass: 6.941000
    reduced_to: 1
  - symbol: Li # 33
    coordinates: [  0.062500000000000,  0.062500000000000,  0.562500000000000 ]
    mass: 6.941000
    reduced_to: 1
  - symbol: Li # 34
    coordinates: [  0.312500000000000,  0.062500000000000,  0.562500000000000 ]
    mass: 6.941000
    reduced_to: 1
  - symbol: Li # 35
    coordinates: [  0.562500000000000,  0.062500000000000,  0.562500000000000 ]
    mass: 6.941000
    reduced_to: 1
  - symbol: Li # 36
    coordinates: [  0.812500000000000,  0.062500000000000,  0.562500000000000 ]
    mass: 6.941000
    reduced_to: 1
  - symbol: Li # 37
    coordinates: [  0.062500000000000,  0.312500000000000,  0.562500000000000 ]
    mass: 6.941000
    reduced_to: 1
  - symbol: Li # 38
    coordinates: [  0.312500000000000,  0.312500000000000,  0.562500000000000 ]
    mass: 6.941000
    reduced_to: 1
  - symbol: Li # 39
    coordinates: [  0.562500000000000,  0.312500000000000,  0.562500000000000 ]
    mass: 6.941000
    reduced_to: 1
  - symbol: Li # 40
    coordinates: [  0.812500000000000,  0.312500000000000,  0.562500000000000 ]
    mass: 6.941000
    reduced_to: 1
  - symbol: Li # 41
    coordinates: [  0.062500000000000,  0.562500000000000,  0.562500000000000 ]
    mass: 6.941000
    reduced_to: 1
  - symbol: Li # 42
    coordinates: [  0.312500000000000,  0.562500000000000,  0.562500000000000 ]
    mass: 6.941000
    reduced_to: 1
  - symbol: Li # 43
    coordinates: [  0.562500000000000,  0.562500000000000,  0.562500000000000 ]
    mass: 6.941000
    reduced_to: 1
  - symbol: Li # 44
    coordinates: [  0.812500000000000,  0.562500000000000,  0.562500000000000 ]
    mass: 6.941000
    reduced_to: 1
  - symbol: Li # 45
    coordinates: [  0.062500000000000,  0.812500000000000,  0.562500000000000 ]
    mass: 6.941000
    reduced_to: 1
  - symbol: Li # 46
    coordinates: [  0.312500000000000,  0.812500000000000,  0.562500000000000 ]
    mass: 6.941000
    reduced_to: 1
  - symbol: Li # 47
    coordinates: [  0.562500000000000,  0.812500000000000,  0.562500000000000 ]
    mass: 6.941000
    reduced_to: 1
  - symbol: Li # 48
    coordinates: [  0.812500000000000,  0.812500000000000,  0.562500000000000 ]
    mass: 6.941000
    reduced_to: 1
  - symbol: Li # 49
    coordinates: [  0.062500000000000,  0.062500000000000,  0.812500000000000 ]
    mass: 6.941000
    reduced_to: 1
  - symbol: Li # 50
    coordinates: [  0.312500000000000,  0.062500000000000,  0.812500000000000 ]
    mass: 6.941000
    reduced_to: 1
  - symbol: Li # 51
    coordinates: [  0.562500000000000,  0.062500000000000,  0.812500000000000 ]
    mass: 6.941000
    reduced_to: 1
  - symbol: Li # 52
    coordinates: [  0.812500000000000,  0.062500000000000,  0.812500000000000 ]
    mass: 6.941000
    reduced_to: 1
  - symbol: Li # 53
    coordinates: [  0.062500000000000,  0.312500000000000,  0.812500000000000 ]
    mass: 6.941000
    reduced_to: 1
  - symbol: Li # 54
    coordinates: [  0.312500000000000,  0.312500000000000,  0.812500000000000 ]
    mass: 6.941000
    reduced_to: 1
  - symbol: Li # 55
    coordinates: [  0.562500000000000,  0.312500000000000,  0.812500000000000 ]
    mass: 6.941000
    reduced_to: 1
  - symbol: Li # 56
    coordinates: [  0.812500000000000,  0.312500000000000,  0.812500000000000 ]
    mass: 6.941000
    reduced_to: 1
  - symbol: Li # 57
    coordinates: [  0.062500000000000,  0.562500000000000,  0.812500000000000 ]
    mass: 6.941000
    reduced_to: 1
  - symbol: Li # 58
    coordinates: [  0.312500000000000,  0.562500000000000,  0.812500000000000 ]
    mass: 6.941000
    reduced_to: 1
  - symbol: Li # 59
    coordinates: [  0.562500000000000,  0.562500000000000,  0.812500000000000 ]
    mass: 6.941000
    reduced_to: 1
  - symbol: Li # 60
    coordinates: [  0.812500000000000,  0.562500000000000,  0.812500000000000 ]
    mass: 6.941000
    reduced_to: 1
  - symbol: Li # 61
    coordinates: [  0.062500000000000,  0.812500000000000,  0.812500000000000 ]
    mass: 6.941000
    reduced_to: 1
  - symbol: Li # 62
    coordinates: [  0.312500000000000,  0.812500000000000,  0.812500000000000 ]
    mass: 6.941000
    reduced_to: 1
  - symbol: Li # 63
    coordinates: [  0.562500000000000,  0.812500000000000,  0.812500000000000 ]
    mass: 6.941000
    reduced_to: 1
  - symbol: Li # 64
    coordinates: [  0.812500000000000,  0.812500000000000,  0.812500000000000 ]
    mass: 6.941000
    reduced_to: 1
  - symbol: Li # 65
    coordinates: [  0.062500000000000,  0.187500000000000,  0.187500000000000 ]
    mass: 6.941000
    reduced_to: 1
  - symbol: Li # 66
    coordinates: [  0.312500000000000,  0.187500000000000,  0.187500000000000 ]
    mass: 6.941000
    reduced_to: 1
  - symbol: Li # 67
    coordinates: [  0.562500000000000,  0.187500000000000,  0.187500000000000 ]
    mass: 6.941000
    reduced_to: 1
  - symbol: Li # 68
    coordinates: [  0.812500000000000,  0.187500000000000,  0.187500000000000 ]
    mass: 6.941000
    reduced_to: 1
  - symbol: Li # 69
    coordinates: [  0.062500000000000,  0.437500000000000,  0.187500000000000 ]
    mass: 6.941000
    reduced_to: 1
  - symbol: Li # 70
    coordinates: [  0.312500000000000,  0.437500000000000,  0.187500000000000 ]
    mass: 6.941000
    reduced_to: 1
  - symbol: Li # 71
    coordinates: [  0.562500000000000,  0.437500000000000,  0.187500000000000 ]
    mass: 6.941000
    reduced_to: 1
  - symbol: Li # 72
    coordinates: [  0.812500000000000,  0.437500000000000,  0.187500000000000 ]
    mass: 6.941000
    reduced_to: 1
  - symbol: Li # 73
    coordinates: [  0.062500000000000,  0.687500000000000,  0.187500000000000 ]
    mass: 6.941000
    reduced_to: 1
  - symbol: Li # 74
    coordinates: [  0.312500000000000,  0.687500000000000,  0.187500000000000 ]
    mass: 6.941000
    reduced_to: 1
  - symbol: Li # 75
    coordinates: [  0.562500000000000,  0.687500000000000,  0.187500000000000 ]
    mass: 6.941000
    reduced_to: 1
  - symbol: Li # 76
    coordinates: [  0.812500000000000,  0.687500000000000,  0.187500000000000 ]
    mass: 6.941000
    reduced_to: 1
  - symbol: Li # 77
    coordinates: [  0.062500000000000,  0.937500000000000,  0.187500000000000 ]
    mass: 6.941000
    reduced_to: 1
  - symbol: Li # 78
    coordinates: [  0.312500000000000,  0.937500000000000,  0.187500000000000 ]
    mass: 6.941000
    reduced_to: 1
  - symbol: Li # 79
    coordinates: [  0.562500000000000,  0.937500000000000,  0.187500000000000 ]
    mass: 6.941000
    reduced_to: 1
  - symbol: Li # 80
    coordinates: [  0.812500000000000,  0.937500000000000,  0.187500000000000 ]
    mass: 6.941000
    reduced_to: 1
  - symbol: Li # 81
    coordinates: [  0.062500000000000,  0.187500000000000,  0.437500000000000 ]
    mass: 6.941000
    reduced_to: 1
  - symbol: Li # 82
    coordinates: [  0.312500000000000,  0.187500000000000,  0.437500000000000 ]
    mass: 6.941000
    reduced_to: 1
  - symbol: Li # 83
    coordinates: [  0.562500000000000,  0.187500000000000,  0.437500000000000 ]
    mass: 6.941000
    reduced_to: 1
  - symbol: Li # 84
    coordinates: [  0.812500000000000,  0.187500000000000,  0.437500000000000 ]
    mass: 6.941000
    reduced_to: 1
  - symbol: Li # 85
    coordinates: [  0.062500000000000,  0.437500000000000,  0.437500000000000 ]
    mass: 6.941000
    reduced_to: 1
  - symbol: Li # 86
    coordinates: [  0.312500000000000,  0.437500000000000,  0.437500000000000 ]
    mass: 6.941000
    reduced_to: 1
  - symbol: Li # 87
    coordinates: [  0.562500000000000,  0.437500000000000,  0.437500000000000 ]
    mass: 6.941000
    reduced_to: 1
  - symbol: Li # 88
    coordinates: [  0.812500000000000,  0.437500000000000,  0.437500000000000 ]
    mass: 6.941000
    reduced_to: 1
  - symbol: Li # 89
    coordinates: [  0.062500000000000,  0.687500000000000,  0.437500000000000 ]
    mass: 6.941000
    reduced_to: 1
  - symbol: Li # 90
    coordinates: [  0.312500000000000,  0.687500000000000,  0.437500000000000 ]
    mass: 6.941000
    reduced_to: 1
  - symbol: Li # 91
    coordinates: [  0.562500000000000,  0.687500000000000,  0.437500000000000 ]
    mass: 6.941000
    reduced_to: 1
  - symbol: Li # 92
    coordinates: [  0.812500000000000,  0.687500000000000,  0.437500000000000 ]
    mass: 6.941000
    reduced_to: 1
  - symbol: Li # 93
    coordinates: [  0.062500000000000,  0.937500000000000,  0.437500000000000 ]
    mass: 6.941000
    reduced_to: 1
  - symbol: Li # 94
    coordinates: [  0.312500000000000,  0.937500000000000,  0.437500000000000 ]
    mass: 6.941000
    reduced_to: 1
  - symbol: Li # 95
    coordinates: [  0.562500000000000,  0.937500000000000,  0.437500000000000 ]
    mass: 6.941000
    reduced_to: 1
  - symbol: Li # 96
    coordinates: [  0.812500000000000,  0.937500000000000,  0.437500000000000 ]
    mass: 6.941000
    reduced_to: 1
  - symbol: Li # 97
    coordinates: [  0.062500000000000,  0.187500000000000,  0.687500000000000 ]
    mass: 6.941000
    reduced_to: 1
  - symbol: Li # 98
    coordinates: [  0.312500000000000,  0.187500000000000,  0.687500000000000 ]
    mass: 6.941000
    reduced_to: 1
  - symbol: Li # 99
    coordinates: [  0.562500000000000,  0.187500000000000,  0.687500000000000 ]
    mass: 6.941000
    reduced_to: 1
  - symbol: Li # 100
    coordinates: [  0.812500000000000,  0.187500000000000,  0.687500000000000 ]
    mass: 6.941000
    reduced_to: 1
  - symbol: Li # 101
    coordinates: [  0.062500000000000,  0.437500000000000,  0.687500000000000 ]
    mass: 6.941000
    reduced_to: 1
  - symbol: Li # 102
    coordinates: [  0.312500000000000,  0.437500000000000,  0.687500000000000 ]
    mass: 6.941000
    reduced_to: 1
  - symbol: Li # 103
    coordinates: [  0.562500000000000,  0.437500000000000,  0.687500000000000 ]
    mass: 6.941000
    reduced_to: 1
  - symbol: Li # 104
    coordinates: [  0.812500000000000,  0.437500000000000,  0.687500000000000 ]
    mass: 6.941000
    reduced_to: 1
  - symbol: Li # 105
    coordinates: [  0.062500000000000,  0.687500000000000,  0.687500000000000 ]
    mass: 6.941000
    reduced_to: 1
  - symbol: Li # 106
    coordinates: [  0.312500000000000,  0.687500000000000,  0.687500000000000 ]
    mass: 6.941000
    reduced_to: 1
  - symbol: Li # 107
    coordinates: [  0.562500000000000,  0.687500000000000,  0.687500000000000 ]
    mass: 6.941000
    reduced_to: 1
  - symbol: Li # 108
    coordinates: [  0.812500000000000,  0.687500000000000,  0.687500000000000 ]
    mass: 6.941000
    reduced_to: 1
  - symbol: Li # 109
    coordinates: [  0.062500000000000,  0.937500000000000,  0.687500000000000 ]
    mass: 6.941000
    reduced_to: 1
  - symbol: Li # 110
    coordinates: [  0.312500000000000,  0.937500000000000,  0.687500000000000 ]
    mass: 6.941000
    reduced_to: 1
  - symbol: Li # 111
    coordinates: [  0.562500000000000,  0.937500000000000,  0.687500000000000 ]
    mass: 6.941000
    reduced_to: 1
  - symbol: Li # 112
    coordinates: [  0.812500000000000,  0.937500000000000,  0.687500000000000 ]
    mass: 6.941000
    reduced_to: 1
  - symbol: Li # 113
    coordinates: [  0.062500000000000,  0.187500000000000,  0.937500000000000 ]
    mass: 6.941000
    reduced_to: 1
  - symbol: Li # 114
    coordinates: [  0.312500000000000,  0.187500000000000,  0.937500000000000 ]
    mass: 6.941000
    reduced_to: 1
  - symbol: Li # 115
    coordinates: [  0.562500000000000,  0.187500000000000,  0.937500000000000 ]
    mass: 6.941000
    reduced_to: 1
  - symbol: Li # 116
    coordinates: [  0.812500000000000,  0.187500000000000,  0.937500000000000 ]
    mass: 6.941000
    reduced_to: 1
  - symbol: Li # 117
    coordinates: [  0.062500000000000,  0.437500000000000,  0.937500000000000 ]
    mass: 6.941000
    reduced_to: 1
  - symbol: Li # 118
    coordinates: [  0.312500000000000,  0.437500000000000,  0.937500000000000 ]
    mass: 6.941000
    reduced_to: 1
  - symbol: Li # 119
    coordinates: [  0.562500000000000,  0.437500000000000,  0.937500000000000 ]
    mass: 6.941000
    reduced_to: 1
  - symbol: Li # 120
    coordinates: [  0.812500000000000,  0.437500000000000,  0.937500000000000 ]
    mass: 6.941000
    reduced_to: 1
  - symbol: Li # 121
    coordinates: [  0.062500000000000,  0.687500000000000,  0.937500000000000 ]
    mass: 6.941000
    reduced_to: 1
  - symbol: Li # 122
    coordinates: [  0.312500000000000,  0.687500000000000,  0.937500000000000 ]
    mass: 6.941000
    reduced_to: 1
  - symbol: Li # 123
    coordinates: [  0.562500000000000,  0.687500000000000,  0.937500000000000 ]
    mass: 6.941000
    reduced_to: 1
  - symbol: Li # 124
    coordinates: [  0.812500000000000,  0.687500000000000,  0.937500000000000 ]
    mass: 6.941000
    reduced_to: 1
  - symbol: Li # 125
    coordinates: [  0.062500000000000,  0.937500000000000,  0.937500000000000 ]
    mass: 6.941000
    reduced_to: 1
  - symbol: Li # 126
    coordinates: [  0.312500000000000,  0.937500000000000,  0.937500000000000 ]
    mass: 6.941000
    reduced_to: 1
  - symbol: Li # 127
    coordinates: [  0.562500000000000,  0.937500000000000,  0.937500000000000 ]
    mass: 6.941000
    reduced_to: 1
  - symbol: Li # 128
    coordinates: [  0.812500000000000,  0.937500000000000,  0.937500000000000 ]
    mass: 6.941000
    reduced_to: 1
  - symbol: Li # 129
    coordinates: [  0.187500000000000,  0.062500000000000,  0.187500000000000 ]
    mass: 6.941000
    reduced_to: 1
  - symbol: Li # 130
    coordinates: [  0.437500000000000,  0.062500000000000,  0.187500000000000 ]
    mass: 6.941000
    reduced_to: 1
  - symbol: Li # 131
    coordinates: [  0.687500000000000,  0.062500000000000,  0.187500000000000 ]
    mass: 6.941000
    reduced_to: 1
  - symbol: Li # 132
    coordinates: [  0.937500000000000,  0.062500000000000,  0.187500000000000 ]
    mass: 6.941000
    reduced_to: 1
  - symbol: Li # 133
    coordinates: [  0.187500000000000,  0.312500000000000,  0.187500000000000 ]
    mass: 6.941000
    reduced_to: 1
  - symbol: Li # 134
    coordinates: [  0.437500000000000,  0.312500000000000,  0.187500000000000 ]
    mass: 6.941000
    reduced_to: 1
  - symbol: Li # 135
    coordinates: [  0.687500000000000,  0.312500000000000,  0.187500000000000 ]
    mass: 6.941000
    reduced_to: 1
  - symbol: Li # 136
    coordinates: [  0.937500000000000,  0.312500000000000,  0.187500000000000 ]
    mass: 6.941000
    reduced_to: 1
  - symbol: Li # 137
    coordinates: [  0.187500000000000,  0.562500000000000,  0.187500000000000 ]
    mass: 6.941000
    reduced_to: 1
  - symbol: Li # 138
    coordinates: [  0.437500000000000,  0.562500000000000,  0.187500000000000 ]
    mass: 6.941000
    reduced_to: 1
  - symbol: Li # 139
    coordinates: [  0.687500000000000,  0.562500000000000,  0.187500000000000 ]
    mass: 6.941000
    reduced_to: 1
  - symbol: Li # 140
    coordinates: [  0.937500000000000,  0.562500000000000,  0.187500000000000 ]
    mass: 6.941000
    reduced_to: 1
  - symbol: Li # 141
    coordinates: [  0.187500000000000,  0.812500000000000,  0.187500000000000 ]
    mass: 6.941000
    reduced_to: 1
  - symbol: Li # 142
    coordinates: [  0.437500000000000,  0.812500000000000,  0.187500000000000 ]
    mass: 6.941000
    reduced_to: 1
  - symbol: Li # 143
    coordinates: [  0.687500000000000,  0.812500000000000,  0.187500000000000 ]
    mass: 6.941000
    reduced_to: 1
  - symbol: Li # 144
    coordinates: [  0.937500000000000,  0.812500000000000,  0.187500000000000 ]
    mass: 6.941000
    reduced_to: 1
  - symbol: Li # 145
    coordinates: [  0.187500000000000,  0.062500000000000,  0.437500000000000 ]
    mass: 6.941000
    reduced_to: 1
  - symbol: Li # 146
    coordinates: [  0.437500000000000,  0.062500000000000,  0.437500000000000 ]
    mass: 6.941000
    reduced_to: 1
  - symbol: Li # 147
    coordinates: [  0.687500000000000,  0.062500000000000,  0.437500000000000 ]
    mass: 6.941000
    reduced_to: 1
  - symbol: Li # 148
    coordinates: [  0.937500000000000,  0.062500000000000,  0.437500000000000 ]
    mass: 6.941000
    reduced_to: 1
  - symbol: Li # 149
    coordinates: [  0.187500000000000,  0.312500000000000,  0.437500000000000 ]
    mass: 6.941000
    reduced_to: 1
  - symbol: Li # 150
    coordinates: [  0.437500000000000,  0.312500000000000,  0.437500000000000 ]
    mass: 6.941000
    reduced_to: 1
  - symbol: Li # 151
    coordinates: [  0.687500000000000,  0.312500000000000,  0.437500000000000 ]
    mass: 6.941000
    reduced_to: 1
  - symbol: Li # 152
    coordinates: [  0.937500000000000,  0.312500000000000,  0.437500000000000 ]
    mass: 6.941000
    reduced_to: 1
  - symbol: Li # 153
    coordinates: [  0.187500000000000,  0.562500000000000,  0.437500000000000 ]
    mass: 6.941000
    reduced_to: 1
  - symbol: Li # 154
    coordinates: [  0.437500000000000,  0.562500000000000,  0.437500000000000 ]
    mass: 6.941000
    reduced_to: 1
  - symbol: Li # 155
    coordinates: [  0.687500000000000,  0.562500000000000,  0.437500000000000 ]
    mass: 6.941000
    reduced_to: 1
  - symbol: Li # 156
    coordinates: [  0.937500000000000,  0.562500000000000,  0.437500000000000 ]
    mass: 6.941000
    reduced_to: 1
  - symbol: Li # 157
    coordinates: [  0.187500000000000,  0.812500000000000,  0.437500000000000 ]
    mass: 6.941000
    reduced_to: 1
  - symbol: Li # 158
    coordinates: [  0.437500000000000,  0.812500000000000,  0.437500000000000 ]
    mass: 6.941000
    reduced_to: 1
  - symbol: Li # 159
    coordinates: [  0.687500000000000,  0.812500000000000,  0.437500000000000 ]
    mass: 6.941000
    reduced_to: 1
  - symbol: Li # 160
    coordinates: [  0.937500000000000,  0.812500000000000,  0.437500000000000 ]
    mass: 6.941000
    reduced_to: 1
  - symbol: Li # 161
    coordinates: [  0.187500000000000,  0.062500000000000,  0.687500000000000 ]
    mass: 6.941000
    reduced_to: 1
  - symbol: Li # 162
    coordinates: [  0.437500000000000,  0.062500000000000,  0.687500000000000 ]
    mass: 6.941000
    reduced_to: 1
  - symbol: Li # 163
    coordinates: [  0.687500000000000,  0.062500000000000,  0.687500000000000 ]
    mass: 6.941000
    reduced_to: 1
  - symbol: Li # 164
    coordinates: [  0.937500000000000,  0.062500000000000,  0.687500000000000 ]
    mass: 6.941000
    reduced_to: 1
  - symbol: Li # 165
    coordinates: [  0.187500000000000,  0.312500000000000,  0.687500000000000 ]
    mass: 6.941000
    reduced_to: 1
  - symbol: Li # 166
    coordinates: [  0.437500000000000,  0.312500000000000,  0.687500000000000 ]
    mass: 6.941000
    reduced_to: 1
  - symbol: Li # 167
    coordinates: [  0.687500000000000,  0.312500000000000,  0.687500000000000 ]
    mass: 6.941000
    reduced_to: 1
  - symbol: Li # 168
    coordinates: [  0.937500000000000,  0.312500000000000,  0.687500000000000 ]
    mass: 6.941000
    reduced_to: 1
  - symbol: Li # 169
    coordinates: [  0.187500000000000,  0.562500000000000,  0.687500000000000 ]
    mass: 6.941000
    reduced_to: 1
  - symbol: Li # 170
    coordinates: [  0.437500000000000,  0.562500000000000,  0.687500000000000 ]
    mass: 6.941000
    reduced_to: 1
  - symbol: Li # 171
    coordinates: [  0.687500000000000,  0.562500000000000,  0.687500000000000 ]
    mass: 6.941000
    reduced_to: 1
  - symbol: Li # 172
    coordinates: [  0.937500000000000,  0.562500000000000,  0.687500000000000 ]
    mass: 6.941000
    reduced_to: 1
  - symbol: Li # 173
    coordinates: [  0.187500000000000,  0.812500000000000,  0.687500000000000 ]
    mass: 6.941000
    reduced_to: 1
  - symbol: Li # 174
    coordinates: [  0.437500000000000,  0.812500000000000,  0.687500000000000 ]
    mass: 6.941000
    reduced_to: 1
  - symbol: Li # 175
    coordinates: [  0.687500000000000,  0.812500000000000,  0.687500000000000 ]
    mass: 6.941000
    reduced_to: 1
  - symbol: Li # 176
    coordinates: [  0.937500000000000,  0.812500000000000,  0.687500000000000 ]
    mass: 6.941000
    reduced_to: 1
  - symbol: Li # 177
    coordinates: [  0.187500000000000,  0.062500000000000,  0.937500000000000 ]
    mass: 6.941000
    reduced_to: 1
  - symbol: Li # 178
    coordinates: [  0.437500000000000,  0.062500000000000,  0.937500000000000 ]
    mass: 6.941000
    reduced_to: 1
  - symbol: Li # 179
    coordinates: [  0.687500000000000,  0.062500000000000,  0.937500000000000 ]
    mass: 6.941000
    reduced_to: 1
  - symbol: Li # 180
    coordinates: [  0.937500000000000,  0.062500000000000,  0.937500000000000 ]
    mass: 6.941000
    reduced_to: 1
  - symbol: Li # 181
    coordinates: [  0.187500000000000,  0.312500000000000,  0.937500000000000 ]
    mass: 6.941000
    reduced_to: 1
  - symbol: Li # 182
    coordinates: [  0.437500000000000,  0.312500000000000,  0.937500000000000 ]
    mass: 6.941000
    reduced_to: 1
  - symbol: Li # 183
    coordinates: [  0.687500000000000,  0.312500000000000,  0.937500000000000 ]
    mass: 6.941000
    reduced_to: 1
  - symbol: Li # 184
    coordinates: [  0.937500000000000,  0.312500000000000,  0.937500000000000 ]
    mass: 6.941000
    reduced_to: 1
  - symbol: Li # 185
    coordinates: [  0.187500000000000,  0.562500000000000,  0.937500000000000 ]
    mass: 6.941000
    reduced_to: 1
  - symbol: Li # 186
    coordinates: [  0.437500000000000,  0.562500000000000,  0.937500000000000 ]
    mass: 6.941000
    reduced_to: 1
  - symbol: Li # 187
    coordinates: [  0.687500000000000,  0.562500000000000,  0.937500000000000 ]
    mass: 6.941000
    reduced_to: 1
  - symbol: Li # 188
    coordinates: [  0.937500000000000,  0.562500000000000,  0.937500000000000 ]
    mass: 6.941000
    reduced_to: 1
  - symbol: Li # 189
    coordinates: [  0.187500000000000,  0.812500000000000,  0.937500000000000 ]
    mass: 6.941000
    reduced_to: 1
  - symbol: Li # 190
    coordinates: [  0.437500000000000,  0.812500000000000,  0.937500000000000 ]
    mass: 6.941000
    reduced_to: 1
  - symbol: Li # 191
    coordinates: [  0.687500000000000,  0.812500000000000,  0.937500000000000 ]
    mass: 6.941000
    reduced_to: 1
  - symbol: Li # 192
    coordinates: [  0.937500000000000,  0.812500000000000,  0.937500000000000 ]
    mass: 6.941000
    reduced_to: 1
  - symbol: Li # 193