phonopy:
  version: "2.21.0"
  frequency_unit_conversion_factor: 15.633302
  symmetry_tolerance: 1.00000e-04

space_group:
  type: "Fm-3m"
  number: 225
  Hall_symbol: "-F 4 2 3"

primitive_matrix:
- [  0.000000000000000,  0.500000000000000,  0.500000000000000 ]
- [  0.500000000000000,  0.000000000000000,  0.500000000000000 ]
- [  0.500000000000000,  0.500000000000000, -0.000000000000000 ]

supercell_matrix:
- [   4,   0,   0 ]
- [   0,   4,   0 ]
- [   0,   0,   4 ]

primitive_cell:
  lattice:
  - [    -0.000000000000000,     3.199434486593076,     3.199434486593077 ] # a
  - [     3.199434486593076,     0.000000000000000,     3.199434486593077 ] # b
  - [     3.199434486593076,     3.199434486593076,     0.000000000000000 ] # c
  points:
  - symbol: Ca # 1
    coordinates: [  0.000000000000000,  0.000000000000000,  0.000000000000000 ]
    mass: 40.078000
  - symbol: Te # 2
    coordinates: [  0.500000000000000,  0.500000000000000,  0.500000000000000 ]
    mass: 127.600000
  reciprocal_lattice: # without 2pi
  - [    -0.156277617840028,     0.156277617840028,     0.156277617840028 ] # a*
  - [     0.156277617840028,    -0.156277617840028,     0.156277617840028 ] # b*
  - [     0.156277617840028,     0.156277617840028,    -0.156277617840028 ] # c*

unit_cell:
  lattice:
  - [     6.398868973186154,    -0.000000000000000,     0.000000000000000 ] # a
  - [    -0.000000000000000,     6.398868973186154,     0.000000000000000 ] # b
  - [     0.000000000000000,     0.000000000000000,     6.398868973186154 ] # c
  points:
  - symbol: Ca # 1
    coordinates: [  0.000000000000000,  0.000000000000000,  0.000000000000000 ]
    mass: 40.078000
    reduced_to: 1
  - symbol: Ca # 2
    coordinates: [  0.000000000000000,  0.500000000000000,  0.500000000000000 ]
    mass: 40.078000
    reduced_to: 1
  - symbol: Ca # 3
    coordinates: [  0.500000000000000,  0.000000000000000,  0.500000000000000 ]
    mass: 40.078000
    reduced_to: 1
  - symbol: Ca # 4
    coordinates: [  0.500000000000000,  0.500000000000000,  0.000000000000000 ]
    mass: 40.078000
    reduced_to: 1
  - symbol: Te # 5
    coordinates: [  0.000000000000000,  0.500000000000000,  0.000000000000000 ]
    mass: 127.600000
    reduced_to: 5
  - symbol: Te # 6
    coordinates: [  0.000000000000000,  0.000000000000000,  0.500000000000000 ]
    mass: 127.600000
    reduced_to: 5
  - symbol: Te # 7
    coordinates: [  0.500000000000000,  0.500000000000000,  0.500000000000000 ]
    mass: 127.600000
    reduced_to: 5
  - symbol: Te # 8
    coordinates: [  0.500000000000000,  0.000000000000000,  0.000000000000000 ]
    mass: 127.600000
    reduced_to: 5

supercell:
  lattice:
  - [    25.595475892744616,     0.000000000000000,     0.000000000000002 ] # a
  - [    -0.000000000000002,    25.595475892744616,     0.000000000000002 ] # b
  - [     0.000000000000000,     0.000000000000000,    25.595475892744616 ] # c
  points:
  - symbol: Ca # 1
    coordinates: [  0.000000000000000,  0.000000000000000,  0.000000000000000 ]
    mass: 40.078000
    reduced_to: 1
  - symbol: Ca # 2
    coordinates: [  0.250000000000000,  0.000000000000000,  0.000000000000000 ]
    mass: 40.078000
    reduced_to: 1
  - symbol: Ca # 3
    coordinates: [  0.500000000000000,  0.000000000000000,  0.000000000000000 ]
    mass: 40.078000
    reduced_to: 1
  - symbol: Ca # 4
    coordinates: [  0.750000000000000,  0.000000000000000,  0.000000000000000 ]
    mass: 40.078000
    reduced_to: 1
  - symbol: Ca # 5
    coordinates: [  0.000000000000000,  0.250000000000000,  0.000000000000000 ]
    mass: 40.078000
    reduced_to: 1
  - symbol: Ca # 6
    coordinates: [  0.250000000000000,  0.250000000000000,  0.000000000000000 ]
    mass: 40.078000
    reduced_to: 1
  - symbol: Ca # 7
    coordinates: [  0.500000000000000,  0.250000000000000,  0.000000000000000 ]
    mass: 40.078000
    reduced_to: 1
  - symbol: Ca # 8
    coordinates: [  0.750000000000000,  0.250000000000000,  0.000000000000000 ]
    mass: 40.078000
    reduced_to: 1
  - symbol: Ca # 9
    coordinates: [  0.000000000000000,  0.500000000000000,  0.000000000000000 ]
    mass: 40.078000
    reduced_to: 1
  - symbol: Ca # 10
    coordinates: [  0.250000000000000,  0.500000000000000,  0.000000000000000 ]
    mass: 40.078000
    reduced_to: 1
  - symbol: Ca # 11
    coordinates: [  0.500000000000000,  0.500000000000000,  0.000000000000000 ]
    mass: 40.078000
    reduced_to: 1
  - symbol: Ca # 12
    coordinates: [  0.750000000000000,  0.500000000000000,  0.000000000000000 ]
    mass: 40.078000
    reduced_to: 1
  - symbol: Ca # 13
    coordinates: [  0.000000000000000,  0.750000000000000,  0.000000000000000 ]
    mass: 40.078000
    reduced_to: 1
  - symbol: Ca # 14
    coordinates: [  0.250000000000000,  0.750000000000000,  0.000000000000000 ]
    mass: 40.078000
    reduced_to: 1
  - symbol: Ca # 15
    coordinates: [  0.500000000000000,  0.750000000000000,  0.000000000000000 ]
    mass: 40.078000
    reduced_to: 1
  - symbol: Ca # 16
    coordinates: [  0.750000000000000,  0.750000000000000,  0.000000000000000 ]
    mass: 40.078000
    reduced_to: 1
  - symbol: Ca # 17
    coordinates: [  0.000000000000000,  0.000000000000000,  0.250000000000000 ]
    mass: 40.078000
    reduced_to: 1
  - symbol: Ca # 18
    coordinates: [  0.250000000000000,  0.000000000000000,  0.250000000000000 ]
    mass: 40.078000
    reduced_to: 1
  - symbol: Ca # 19
    coordinates: [  0.500000000000000,  0.000000000000000,  0.250000000000000 ]
    mass: 40.078000
    reduced_to: 1
  - symbol: Ca # 20
    coordinates: [  0.750000000000000,  0.000000000000000,  0.250000000000000 ]
    mass: 40.078000
    reduced_to: 1
  - symbol: Ca # 21
    coordinates: [  0.000000000000000,  0.250000000000000,  0.250000000000000 ]
    mass: 40.078000
    reduced_to: 1
  - symbol: Ca # 22
    coordinates: [  0.250000000000000,  0.250000000000000,  0.250000000000000 ]
    mass: 40.078000
    reduced_to: 1
  - symbol: Ca # 23
    coordinates: [  0.500000000000000,  0.250000000000000,  0.250000000000000 ]
    mass: 40.078000
    reduced_to: 1
  - symbol: Ca # 24
    coordinates: [  0.750000000000000,  0.250000000000000,  0.250000000000000 ]
    mass: 40.078000
    reduced_to: 1
  - symbol: Ca # 25
    coordinates: [  0.000000000000000,  0.500000000000000,  0.250000000000000 ]
    mass: 40.078000
    reduced_to: 1
  - symbol: Ca # 26
    coordinates: [  0.250000000000000,  0.500000000000000,  0.250000000000000 ]
    mass: 40.078000
    reduced_to: 1
  - symbol: Ca # 27
    coordinates: [  0.500000000000000,  0.500000000000000,  0.250000000000000 ]
    mass: 40.078000
    reduced_to: 1
  - symbol: Ca # 28
    coordinates: [  0.750000000000000,  0.500000000000000,  0.250000000000000 ]
    mass: 40.078000
    reduced_to: 1
  - symbol: Ca # 29
    coordinates: [  0.000000000000000,  0.750000000000000,  0.250000000000000 ]
    mass: 40.078000
    reduced_to: 1
  - symbol: Ca # 30
    coordinates: [  0.250000000000000,  0.750000000000000,  0.250000000000000 ]
    mass: 40.078000
    reduced_to: 1
  - symbol: Ca # 31
    coordinates: [  0.500000000000000,  0.750000000000000,  0.250000000000000 ]
    mass: 40.078000
    reduced_to: 1
  - symbol: Ca # 32
    coordinates: [  0.750000000000000,  0.750000000000000,  0.250000000000000 ]
    mass: 40.078000
    reduced_to: 1
  - symbol: Ca # 33
    coordinates: [  0.000000000000000,  0.000000000000000,  0.500000000000000 ]
    mass: 40.078000
    reduced_to: 1
  - symbol: Ca # 34
    coordinates: [  0.250000000000000,  0.000000000000000,  0.500000000000000 ]
    mass: 40.078000
    reduced_to: 1
  - symbol: Ca # 35
    coordinates: [  0.500000000000000,  0.000000000000000,  0.500000000000000 ]
    mass: 40.078000
    reduced_to: 1
  - symbol: Ca # 36
    coordinates: [  0.750000000000000,  0.000000000000000,  0.500000000000000 ]
    mass: 40.078000
    reduced_to: 1
  - symbol: Ca # 37
    coordinates: [  0.000000000000000,  0.250000000000000,  0.500000000000000 ]
    mass: 40.078000
    reduced_to: 1
  - symbol: Ca # 38
    coordinates: [  0.250000000000000,  0.250000000000000,  0.500000000000000 ]
    mass: 40.078000
    reduced_to: 1
  - symbol: Ca # 39
    coordinates: [  0.500000000000000,  0.250000000000000,  0.500000000000000 ]
    mass: 40.078000
    reduced_to: 1
  - symbol: Ca # 40
    coordinates: [  0.750000000000000,  0.250000000000000,  0.500000000000000 ]
    mass: 40.078000
    reduced_to: 1
  - symbol: Ca # 41
    coordinates: [  0.000000000000000,  0.500000000000000,  0.500000000000000 ]
    mass: 40.078000
    reduced_to: 1
  - symbol: Ca # 42
    coordinates: [  0.250000000000000,  0.500000000000000,  0.500000000000000 ]
    mass: 40.078000
    reduced_to: 1
  - symbol: Ca # 43
    coordinates: [  0.500000000000000,  0.500000000000000,  0.500000000000000 ]
    mass: 40.078000
    reduced_to: 1
  - symbol: Ca # 44
    coordinates: [  0.750000000000000,  0.500000000000000,  0.500000000000000 ]
    mass: 40.078000
    reduced_to: 1
  - symbol: Ca # 45
    coordinates: [  0.000000000000000,  0.750000000000000,  0.500000000000000 ]
    mass: 40.078000
    reduced_to: 1
  - symbol: Ca # 46
    coordinates: [  0.250000000000000,  0.750000000000000,  0.500000000000000 ]
    mass: 40.078000
    reduced_to: 1
  - symbol: Ca # 47
    coordinates: [  0.500000000000000,  0.750000000000000,  0.500000000000000 ]
    mass: 40.078000
    reduced_to: 1
  - symbol: Ca # 48
    coordinates: [  0.750000000000000,  0.750000000000000,  0.500000000000000 ]
    mass: 40.078000
    reduced_to: 1
  - symbol: Ca # 49
    coordinates: [  0.000000000000000,  0.000000000000000,  0.750000000000000 ]
    mass: 40.078000
    reduced_to: 1
  - symbol: Ca # 50
    coordinates: [  0.250000000000000,  0.000000000000000,  0.750000000000000 ]
    mass: 40.078000
    reduced_to: 1
  - symbol: Ca # 51
    coordinates: [  0.500000000000000,  0.000000000000000,  0.750000000000000 ]
    mass: 40.078000
    reduced_to: 1
  - symbol: Ca # 52
    coordinates: [  0.750000000000000,  0.000000000000000,  0.750000000000000 ]
    mass: 40.078000
    reduced_to: 1
  - symbol: Ca # 53
    coordinates: [  0.000000000000000,  0.250000000000000,  0.750000000000000 ]
    mass: 40.078000
    reduced_to: 1
  - symbol: Ca # 54
    coordinates: [  0.250000000000000,  0.250000000000000,  0.750000000000000 ]
    mass: 40.078000
    reduced_to: 1
  - symbol: Ca # 55
    coordinates: [  0.500000000000000,  0.250000000000000,  0.750000000000000 ]
    mass: 40.078000
    reduced_to: 1
  - symbol: Ca # 56
    coordinates: [  0.750000000000000,  0.250000000000000,  0.750000000000000 ]
    mass: 40.078000
    reduced_to: 1
  - symbol: Ca # 57
    coordinates: [  0.000000000000000,  0.500000000000000,  0.750000000000000 ]
    mass: 40.078000
    reduced_to: 1
  - symbol: Ca # 58
    coordinates: [  0.250000000000000,  0.500000000000000,  0.750000000000000 ]
    mass: 40.078000
    reduced_to: 1
  - symbol: Ca # 59
    coordinates: [  0.500000000000000,  0.500000000000000,  0.750000000000000 ]
    mass: 40.078000
    reduced_to: 1
  - symbol: Ca # 60
    coordinates: [  0.750000000000000,  0.500000000000000,  0.750000000000000 ]
    mass: 40.078000
    reduced_to: 1
  - symbol: Ca # 61
    coordinates: [  0.000000000000000,  0.750000000000000,  0.750000000000000 ]
    mass: 40.078000
    reduced_to: 1
  - symbol: Ca # 62
    coordinates: [  0.250000000000000,  0.750000000000000,  0.750000000000000 ]
    mass: 40.078000
    reduced_to: 1
  - symbol: Ca # 63
    coordinates: [  0.500000000000000,  0.750000000000000,  0.750000000000000 ]
    mass: 40.078000
    reduced_to: 1
  - symbol: Ca # 64
    coordinates: [  0.750000000000000,  0.750000000000000,  0.750000000000000 ]
    mass: 40.078000
    reduced_to: 1
  - symbol: Ca # 65
    coordinates: [  0.000000000000000,  0.125000000000000,  0.125000000000000 ]
    mass: 40.078000
    reduced_to: 1
  - symbol: Ca # 66
    coordinates: [  0.250000000000000,  0.125000000000000,  0.125000000000000 ]
    mass: 40.078000
    reduced_to: 1
  - symbol: Ca # 67
    coordinates: [  0.500000000000000,  0.125000000000000,  0.125000000000000 ]
    mass: 40.078000
    reduced_to: 1
  - symbol: Ca # 68
    coordinates: [  0.750000000000000,  0.125000000000000,  0.125000000000000 ]
    mass: 40.078000
    reduced_to: 1
  - symbol: Ca # 69
    coordinates: [  0.000000000000000,  0.375000000000000,  0.125000000000000 ]
    mass: 40.078000
    reduced_to: 1
  - symbol: Ca # 70
    coordinates: [  0.250000000000000,  0.375000000000000,  0.125000000000000 ]
    mass: 40.078000
    reduced_to: 1
  - symbol: Ca # 71
    coordinates: [  0.500000000000000,  0.375000000000000,  0.125000000000000 ]
    mass: 40.078000
    reduced_to: 1
  - symbol: Ca # 72
    coordinates: [  0.750000000000000,  0.375000000000000,  0.125000000000000 ]
    mass: 40.078000
    reduced_to: 1
  - symbol: Ca # 73
    coordinates: [  0.000000000000000,  0.625000000000000,  0.125000000000000 ]
    mass: 40.078000
    reduced_to: 1
  - symbol: Ca # 74
    coordinates: [  0.250000000000000,  0.625000000000000,  0.125000000000000 ]
    mass: 40.078000
    reduced_to: 1
  - symbol: Ca # 75
    coordinates: [  0.500000000000000,  0.625000000000000,  0.125000000000000 ]
    mass: 40.078000
    reduced_to: 1
  - symbol: Ca # 76
    coordinates: [  0.750000000000000,  0.625000000000000,  0.125000000000000 ]
    mass: 40.078000
    reduced_to: 1
  - symbol: Ca # 77
    coordinates: [  0.000000000000000,  0.875000000000000,  0.125000000000000 ]
    mass: 40.078000
    reduced_to: 1
  - symbol: Ca # 78
    coordinates: [  0.250000000000000,  0.875000000000000,  0.125000000000000 ]
    mass: 40.078000
    reduced_to: 1
  - symbol: Ca # 79
    coordinates: [  0.500000000000000,  0.875000000000000,  0.125000000000000 ]
    mass: 40.078000
    reduced_to: 1
  - symbol: Ca # 80
    coordinates: [  0.750000000000000,  0.875000000000000,  0.125000000000000 ]
    mass: 40.078000
    reduced_to: 1
  - symbol: Ca # 81
    coordinates: [  0.000000000000000,  0.125000000000000,  0.375000000000000 ]
    mass: 40.078000
    reduced_to: 1
  - symbol: Ca # 82
    coordinates: [  0.250000000000000,  0.125000000000000,  0.375000000000000 ]
    mass: 40.078000
    reduced_to: 1
  - symbol: Ca # 83
    coordinates: [  0.500000000000000,  0.125000000000000,  0.375000000000000 ]
    mass: 40.078000
    reduced_to: 1
  - symbol: Ca # 84
    coordinates: [  0.750000000000000,  0.125000000000000,  0.375000000000000 ]
    mass: 40.078000
    reduced_to: 1
  - symbol: Ca # 85
    coordinates: [  0.000000000000000,  0.375000000000000,  0.375000000000000 ]
    mass: 40.078000
    reduced_to: 1
  - symbol: Ca # 86
    coordinates: [  0.250000000000000,  0.375000000000000,  0.375000000000000 ]
    mass: 40.078000
    reduced_to: 1
  - symbol: Ca # 87
    coordinates: [  0.500000000000000,  0.375000000000000,  0.375000000000000 ]
    mass: 40.078000
    reduced_to: 1
  - symbol: Ca # 88
    coordinates: [  0.750000000000000,  0.375000000000000,  0.375000000000000 ]
    mass: 40.078000
    reduced_to: 1
  - symbol: Ca # 89
    coordinates: [  0.000000000000000,  0.625000000000000,  0.375000000000000 ]
    mass: 40.078000
    reduced_to: 1
  - symbol: Ca # 90
    coordinates: [  0.250000000000000,  0.625000000000000,  0.375000000000000 ]
    mass: 40.078000
    reduced_to: 1
  - symbol: Ca # 91
    coordinates: [  0.500000000000000,  0.625000000000000,  0.375000000000000 ]
    mass: 40.078000
    reduced_to: 1
  - symbol: Ca # 92
    coordinates: [  0.750000000000000,  0.625000000000000,  0.375000000000000 ]
    mass: 40.078000
    reduced_to: 1
  - symbol: Ca # 93
    coordinates: [  0.000000000000000,  0.875000000000000,  0.375000000000000 ]
    mass: 40.078000
    reduced_to: 1
  - symbol: Ca # 94
    coordinates: [  0.250000000000000,  0.875000000000000,  0.375000000000000 ]
    mass: 40.078000
    reduced_to: 1
  - symbol: Ca # 95
    coordinates: [  0.500000000000000,  0.875000000000000,  0.375000000000000 ]
    mass: 40.078000
    reduced_to: 1
  - symbol: Ca # 96
    coordinates: [  0.750000000000000,  0.875000000000000,  0.375000000000000 ]
    mass: 40.078000
    reduced_to: 1
  - symbol: Ca # 97
    coordinates: [  0.000000000000000,  0.125000000000000,  0.625000000000000 ]
    mass: 40.078000
    reduced_to: 1
  - symbol: Ca # 98
    coordinates: [  0.250000000000000,  0.125000000000000,  0.625000000000000 ]
    mass: 40.078000
    reduced_to: 1
  - symbol: Ca # 99
    coordinates: [  0.500000000000000,  0.125000000000000,  0.625000000000000 ]
    mass: 40.078000
    reduced_to: 1
  - symbol: Ca # 100
    coordinates: [  0.750000000000000,  0.125000000000000,  0.625000000000000 ]
    mass: 40.078000
    reduced_to: 1
  - symbol: Ca # 101
    coordinates: [  0.000000000000000,  0.375000000000000,  0.625000000000000 ]
    mass: 40.078000
    reduced_to: 1
  - symbol: Ca # 102
    coordinates: [  0.250000000000000,  0.375000000000000,  0.625000000000000 ]
    mass: 40.078000
    reduced_to: 1
  - symbol: Ca # 103
    coordinates: [  0.500000000000000,  0.375000000000000,  0.625000000000000 ]
    mass: 40.078000
    reduced_to: 1
  - symbol: Ca # 104
    coordinates: [  0.750000000000000,  0.375000000000000,  0.625000000000000 ]
    mass: 40.078000
    reduced_to: 1
  - symbol: Ca # 105
    coordinates: [  0.000000000000000,  0.625000000000000,  0.625000000000000 ]
    mass: 40.078000
    reduced_to: 1
  - symbol: Ca # 106
    coordinates: [  0.250000000000000,  0.625000000000000,  0.625000000000000 ]
    mass: 40.078000
    reduced_to: 1
  - symbol: Ca # 107
    coordinates: [  0.500000000000000,  0.625000000000000,  0.625000000000000 ]
    mass: 40.078000
    reduced_to: 1
  - symbol: Ca # 108
    coordinates: [  0.750000000000000,  0.625000000000000,  0.625000000000000 ]
    mass: 40.078000
    reduced_to: 1
  - symbol: Ca # 109
    coordinates: [  0.000000000000000,  0.875000000000000,  0.625000000000000 ]
    mass: 40.078000
    reduced_to: 1
  - symbol: Ca # 110
    coordinates: [  0.250000000000000,  0.875000000000000,  0.625000000000000 ]
    mass: 40.078000
    reduced_to: 1
  - symbol: Ca # 111
    coordinates: [  0.500000000000000,  0.875000000000000,  0.625000000000000 ]
    mass: 40.078000
    reduced_to: 1
  - symbol: Ca # 112
    coordinates: [  0.750000000000000,  0.875000000000000,  0.625000000000000 ]
    mass: 40.078000
    reduced_to: 1
  - symbol: Ca # 113
    coordinates: [  0.000000000000000,  0.125000000000000,  0.875000000000000 ]
    mass: 40.078000
    reduced_to: 1
  - symbol: Ca # 114
    coordinates: [  0.250000000000000,  0.125000000000000,  0.875000000000000 ]
    mass: 40.078000
    reduced_to: 1
  - symbol: Ca # 115
    coordinates: [  0.500000000000000,  0.125000000000000,  0.875000000000000 ]
    mass: 40.078000
    reduced_to: 1
  - symbol: Ca # 116
    coordinates: [  0.750000000000000,  0.125000000000000,  0.875000000000000 ]
    mass: 40.078000
    reduced_to: 1
  - symbol: Ca # 117
    coordinates: [  0.000000000000000,  0.375000000000000,  0.875000000000000 ]
    mass: 40.078000
    reduced_to: 1
  - symbol: Ca # 118
    coordinates: [  0.250000000000000,  0.375000000000000,  0.875000000000000 ]
    mass: 40.078000
    reduced_to: 1
  - symbol: Ca # 119
    coordinates: [  0.500000000000000,  0.375000000000000,  0.875000000000000 ]
    mass: 40.078000
    reduced_to: 1
  - symbol: Ca # 120
    coordinates: [  0.750000000000000,  0.375000000000000,  0.875000000000000 ]
    mass: 40.078000
    reduced_to: 1
  - symbol: Ca # 121
    coordinates: [  0.000000000000000,  0.625000000000000,  0.875000000000000 ]
    mass: 40.078000
    reduced_to: 1
  - symbol: Ca # 122
    coordinates: [  0.250000000000000,  0.625000000000000,  0.875000000000000 ]
    mass: 40.078000
    reduced_to: 1
  - symbol: Ca # 123
    coordinates: [  0.500000000000000,  0.625000000000000,  0.875000000000000 ]
    mass: 40.078000
    reduced_to: 1
  - symbol: Ca # 124
    coordinates: [  0.750000000000000,  0.625000000000000,  0.875000000000000 ]
    mass: 40.078000
    reduced_to: 1
  - symbol: Ca # 125
    coordinates: [  0.000000000000000,  0.875000000000000,  0.875000000000000 ]
    mass: 40.078000
    reduced_to: 1
  - symbol: Ca # 126
    coordinates: [  0.250000000000000,  0.875000000000000,  0.875000000000000 ]
    mass: 40.078000
    reduced_to: 1
  - symbol: Ca # 127
    coordinates: [  0.500000000000000,  0.875000000000000,  0.875000000000000 ]
    mass: 40.078000
    reduced_to: 1
  - symbol: Ca # 128
    coordinates: [  0.750000000000000,  0.875000000000000,  0.875000000000000 ]
    mass: 40.078000
    reduced_to: 1
  - symbol: Ca # 129
    coordinates: [  0.125000000000000,  0.000000000000000,  0.125000000000000 ]
    mass: 40.078000
    reduced_to: 1
  - symbol: Ca # 130
    coordinates: [  0.375000000000000,  0.000000000000000,  0.125000000000000 ]
    mass: 40.078000
    reduced_to: 1
  - symbol: Ca # 131
    coordinates: [  0.625000000000000,  0.000000000000000,  0.125000000000000 ]
    mass: 40.078000
    reduced_to: 1
  - symbol: Ca # 132
    coordinates: [  0.875000000000000,  0.000000000000000,  0.125000000000000 ]
    mass: 40.078000
    reduced_to: 1
  - symbol: Ca # 133
    coordinates: [  0.125000000000000,  0.250000000000000,  0.125000000000000 ]
    mass: 40.078000
    reduced_to: 1
  - symbol: Ca # 134
    coordinates: [  0.375000000000000,  0.250000000000000,  0.125000000000000 ]
    mass: 40.078000
    reduced_to: 1
  - symbol: Ca # 135
    coordinates: [  0.625000000000000,  0.250000000000000,  0.125000000000000 ]
    mass: 40.078000
    reduced_to: 1
  - symbol: Ca # 136
    coordinates: [  0.875000000000000,  0.250000000000000,  0.125000000000000 ]
    mass: 40.078000
    reduced_to: 1
  - symbol: Ca # 137
    coordinates: [  0.125000000000000,  0.500000000000000,  0.125000000000000 ]
    mass: 40.078000
    reduced_to: 1
  - symbol: Ca # 138
    coordinates: [  0.375000000000000,  0.500000000000000,  0.125000000000000 ]
    mass: 40.078000
    reduced_to: 1
  - symbol: Ca # 139
    coordinates: [  0.625000000000000,  0.500000000000000,  0.125000000000000 ]
    mass: 40.078000
    reduced_to: 1
  - symbol: Ca # 140
    coordinates: [  0.875000000000000,  0.500000000000000,  0.125000000000000 ]
    mass: 40.078000
    reduced_to: 1
  - symbol: Ca # 141
    coordinates: [  0.125000000000000,  0.750000000000000,  0.125000000000000 ]
    mass: 40.078000
    reduced_to: 1
  - symbol: Ca # 142
    coordinates: [  0.375000000000000,  0.750000000000000,  0.125000000000000 ]
    mass: 40.078000
    reduced_to: 1
  - symbol: Ca # 143
    coordinates: [  0.625000000000000,  0.750000000000000,  0.125000000000000 ]
    mass: 40.078000
    reduced_to: 1
  - symbol: Ca # 144
    coordinates: [  0.875000000000000,  0.750000000000000,  0.125000000000000 ]
    mass: 40.078000
    reduced_to: 1
  - symbol: Ca # 145
    coordinates: [  0.125000000000000,  0.000000000000000,  0.375000000000000 ]
    mass: 40.078000
    reduced_to: 1
  - symbol: Ca # 146
    coordinates: [  0.375000000000000,  0.000000000000000,  0.375000000000000 ]
    mass: 40.078000
    reduced_to: 1
  - symbol: Ca # 147
    coordinates: [  0.625000000000000,  0.000000000000000,  0.375000000000000 ]
    mass: 40.078000
    reduced_to: 1
  - symbol: Ca # 148
    coordinates: [  0.875000000000000,  0.000000000000000,  0.375000000000000 ]
    mass: 40.078000
    reduced_to: 1
  - symbol: Ca # 149
    coordinates: [  0.125000000000000,  0.250000000000000,  0.375000000000000 ]
    mass: 40.078000
    reduced_to: 1
  - symbol: Ca # 150
    coordinates: [  0.375000000000000,  0.250000000000000,  0.375000000000000 ]
    mass: 40.078000
    reduced_to: 1
  - symbol: Ca # 151
    coordinates: [  0.625000000000000,  0.250000000000000,  0.375000000000000 ]
    mass: 40.078000
    reduced_to: 1
  - symbol: Ca # 152
    coordinates: [  0.875000000000000,  0.250000000000000,  0.375000000000000 ]
    mass: 40.078000
    reduced_to: 1
  - symbol: Ca # 153
    coordinates: [  0.125000000000000,  0.500000000000000,  0.375000000000000 ]
    mass: 40.078000
    reduced_to: 1
  - symbol: Ca # 154
    coordinates: [  0.375000000000000,  0.500000000000000,  0.375000000000000 ]
    mass: 40.078000
    reduced_to: 1
  - symbol: Ca # 155
    coordinates: [  0.625000000000000,  0.500000000000000,  0.375000000000000 ]
    mass: 40.078000
    reduced_to: 1
  - symbol: Ca # 156
    coordinates: [  0.875000000000000,  0.500000000000000,  0.375000000000000 ]
    mass: 40.078000
    reduced_to: 1
  - symbol: Ca # 157
    coordinates: [  0.125000000000000,  0.750000000000000,  0.375000000000000 ]
    mass: 40.078000
    reduced_to: 1
  - symbol: Ca # 158
    coordinates: [  0.375000000000000,  0.750000000000000,  0.375000000000000 ]
    mass: 40.078000
    reduced_to: 1
  - symbol: Ca # 159
    coordinates: [  0.625000000000000,  0.750000000000000,  0.375000000000000 ]
    mass: 40.078000
    reduced_to: 1
  - symbol: Ca # 160
    coordinates: [  0.875000000000000,  0.750000000000000,  0.375000000000000 ]
    mass: 40.078000
    reduced_to: 1
  - symbol: Ca # 161
    coordinates: [  0.125000000000000,  0.000000000000000,  0.625000000000000 ]
    mass: 40.078000
    reduced_to: 1
  - symbol: Ca # 162
    coordinates: [  0.375000000000000,  0.000000000000000,  0.625000000000000 ]
    mass: 40.078000
    reduced_to: 1
  - symbol: Ca # 163
    coordinates: [  0.625000000000000,  0.000000000000000,  0.625000000000000 ]
    mass: 40.078000
    reduced_to: 1
  - symbol: Ca # 164
    coordinates: [  0.875000000000000,  0.000000000000000,  0.625000000000000 ]
    mass: 40.078000
    reduced_to: 1
  - symbol: Ca # 165
    coordinates: [  0.125000000000000,  0.250000000000000,  0.625000000000000 ]
    mass: 40.078000
    reduced_to: 1
  - symbol: Ca # 166
    coordinates: [  0.375000000000000,  0.250000000000000,  0.625000000000000 ]
    mass: 40.078000
    reduced_to: 1
  - symbol: Ca # 167
    coordinates: [  0.625000000000000,  0.250000000000000,  0.625000000000000 ]
    mass: 40.078000
    reduced_to: 1
  - symbol: Ca # 168
    coordinates: [  0.875000000000000,  0.250000000000000,  0.625000000000000 ]
    mass: 40.078000
    reduced_to: 1
  - symbol: Ca # 169
    coordinates: [  0.125000000000000,  0.500000000000000,  0.625000000000000 ]
    mass: 40.078000
    reduced_to: 1
  - symbol: Ca # 170
    coordinates: [  0.375000000000000,  0.500000000000000,  0.625000000000000 ]
    mass: 40.078000
    reduced_to: 1
  - symbol: Ca # 171
    coordinates: [  0.625000000000000,  0.500000000000000,  0.625000000000000 ]
    mass: 40.078000
    reduced_to: 1
  - symbol: Ca # 172
    coordinates: [  0.875000000000000,  0.500000000000000,  0.625000000000000 ]
    mass: 40.078000
    reduced_to: 1
  - symbol: Ca # 173
    coordinates: [  0.125000000000000,  0.750000000000000,  0.625000000000000 ]
    mass: 40.078000
    reduced_to: 1
  - symbol: Ca # 174
    coordinates: [  0.375000000000000,  0.750000000000000,  0.625000000000000 ]
    mass: 40.078000
    reduced_to: 1
  - symbol: Ca # 175
    coordinates: [  0.625000000000000,  0.750000000000000,  0.625000000000000 ]
    mass: 40.078000
    reduced_to: 1
  - symbol: Ca # 176
    coordinates: [  0.875000000000000,  0.750000000000000,  0.625000000000000 ]
    mass: 40.078000
    reduced_to: 1
  - symbol: Ca # 177
    coordinates: [  0.125000000000000,  0.000000000000000,  0.875000000000000 ]
    mass: 40.078000
    reduced_to: 1
  - symbol: Ca # 178
    coordinates: [  0.375000000000000,  0.000000000000000,  0.875000000000000 ]
    mass: 40.078000
    reduced_to: 1
  - symbol: Ca # 179
    coordinates: [  0.625000000000000,  0.000000000000000,  0.875000000000000 ]
    mass: 40.078000
    reduced_to: 1
  - symbol: Ca # 180
    coordinates: [  0.875000000000000,  0.000000000000000,  0.875000000000000 ]
    mass: 40.078000
    reduced_to: 1
  - symbol: Ca # 181
    coordinates: [  0.125000000000000,  0.250000000000000,  0.875000000000000 ]
    mass: 40.078000
    reduced_to: 1
  - symbol: Ca # 182
    coordinates: [  0.375000000000000,  0.250000000000000,  0.875000000000000 ]
    mass: 40.078000
    reduced_to: 1
  - symbol: Ca # 183
    coordinates: [  0.625000000000000,  0.250000000000000,  0.875000000000000 ]
    mass: 40.078000
    reduced_to: 1
  - symbol: Ca # 184
    coordinates: [  0.875000000000000,  0.250000000000000,  0.875000000000000 ]
    mass: 40.078000
    reduced_to: 1
  - symbol: Ca # 185
    coordinates: [  0.125000000000000,  0.500000000000000,  0.875000000000000 ]
    mass: 40.078000
    reduced_to: 1
  - symbol: Ca # 186
    coordinates: [  0.375000000000000,  0.500000000000000,  0.875000000000000 ]
    mass: 40.078000
    reduced_to: 1
  - symbol: Ca # 187
    coordinates: [  0.625000000000000,  0.500000000000000,  0.875000000000000 ]
    mass: 40.078000
    reduced_to: 1
  - symbol: Ca # 188
    coordinates: [  0.875000000000000,  0.500000000000000,  0.875000000000000 ]
    mass: 40.078000
    reduced_to: 1
  - symbol: Ca # 189
    coordinates: [  0.125000000000000,  0.750000000000000,  0.875000000000000 ]
    mass: 40.078000
    reduced_to: 1
  - symbol: Ca # 190
    coordinates: [  0.375000000000000,  0.750000000000000,  0.875000000000000 ]
    mass: 40.078000
    reduced_to: 1
  - symbol: Ca # 191
    coordinates: [  0.625000000000000,  0.750000000000000,  0.875000000000000 ]
    mass: 40.078000
    reduced_to: 1
  - symbol: Ca # 192
    coordinates: [  0.875000000000000,  0.750000000000000,  0.875000000000000 ]
    mass: 40.078000
    reduced_to: 1
  - symbol: Ca # 193
    coordinates: [  0.125000000000000,  0.125000000000000,  0.000000000000000 ]
    mass: 40.078000
    reduced_to: 1
  - symbol: Ca # 194
    coordinates: [  0.375000000000000,  0.125000000000000,  0.000000000000000 ]
    mass: 40.078000
    reduced_to: 1
  - symbol: Ca # 195
    coordinates: [  0.625000000000000,  0.125000000000000,  0.000000000000000 ]
    mass: 40.078000
    reduced_to: 1
  - symbol: Ca # 196