phonopy:
  version: "2.27.0"
  frequency_unit_conversion_factor: 15.633302
  symmetry_tolerance: 1.00000e-03

space_group:
  type: "P2_1/c"
  number: 14
  Hall_symbol: "-P 2ybc"

primitive_matrix:
- [  1.000000000000000,  0.000000000000000,  0.000000000000000 ]
- [ -0.000000000000000,  1.000000000000000,  0.000000000000000 ]
- [  0.000000000000000,  0.000000000000000,  1.000000000000000 ]

supercell_matrix:
- [   0,   3,  -2 ]
- [   5,   0,   0 ]
- [   0,   0,  -3 ]

primitive_cell:
  lattice:
  - [    -0.000000000000000,     8.039565497600986,     0.060821496838405 ] # a
  - [     4.473396932696041,    -0.000000000000000,     0.000000000000000 ] # b
  - [     0.000000000000001,    -4.860256849900779,    -7.860746262570943 ] # c
  points:
  - symbol: Ag # 1
    coordinates: [  0.031122801834734,  0.125979364096248,  0.657107189759115 ]
    mass: 107.868200
  - symbol: Ag # 2
    coordinates: [  0.968877198165259,  0.625979364096248,  0.842892810240886 ]
    mass: 107.868200
  - symbol: Ag # 3
    coordinates: [  0.968877198165260,  0.874020635903757,  0.342892810240886 ]
    mass: 107.868200
  - symbol: Ag # 4
    coordinates: [  0.031122801834734,  0.374020635903757,  0.157107189759115 ]
    mass: 107.868200
  - symbol: Ag # 5
    coordinates: [  0.335263899368259,  0.859437114752593,  0.343687108807375 ]
    mass: 107.868200
  - symbol: Ag # 6
    coordinates: [  0.664736100631734,  0.359437114752594,  0.156312891192626 ]
    mass: 107.868200
  - symbol: Ag # 7
    coordinates: [  0.664736100631734,  0.140562885247412,  0.656312891192626 ]
    mass: 107.868200
  - symbol: Ag # 8
    coordinates: [  0.335263899368259,  0.640562885247412,  0.843687108807375 ]
    mass: 107.868200
  - symbol: Te # 9
    coordinates: [  0.272366974864385,  0.143757766148095,  0.030510959795491 ]
    mass: 127.600000
  - symbol: Te # 10
    coordinates: [  0.727633025135608,  0.643757766148095,  0.469489040204510 ]
    mass: 127.600000
  - symbol: Te # 11
    coordinates: [  0.727633025135608,  0.856242233851910,  0.969489040204510 ]
    mass: 127.600000
  - symbol: Te # 12
    coordinates: [  0.272366974864385,  0.356242233851910,  0.530510959795491 ]
    mass: 127.600000
  reciprocal_lattice: # without 2pi
  - [     0.000000000000000,     0.124969384134220,    -0.077267893527907 ] # a*
  - [     0.223543766637609,     0.000000000000000,     0.000000000000000 ] # b*
  - [     0.000000000000000,     0.000966934276738,    -0.127812235045139 ] # c*

unit_cell:
  lattice:
  - [    -0.000000000000000,     8.039565497600986,     0.060821496838405 ] # a
  - [     4.473396932696041,    -0.000000000000000,     0.000000000000000 ] # b
  - [     0.000000000000001,    -4.860256849900780,    -7.860746262570944 ] # c
  points:
  - symbol: Ag # 1
    coordinates: [  0.031122801834734,  0.125979364096248,  0.657107189759115 ]
    mass: 107.868200
    reduced_to: 1
  - symbol: Ag # 2
    coordinates: [  0.968877198165259,  0.625979364096248,  0.842892810240886 ]
    mass: 107.868200
    reduced_to: 2
  - symbol: Ag # 3
    coordinates: [  0.968877198165259,  0.874020635903757,  0.342892810240886 ]
    mass: 107.868200
    reduced_to: 3
  - symbol: Ag # 4
    coordinates: [  0.031122801834734,  0.374020635903757,  0.157107189759115 ]
    mass: 107.868200
    reduced_to: 4
  - symbol: Ag # 5
    coordinates: [  0.335263899368259,  0.859437114752593,  0.343687108807375 ]
    mass: 107.868200
    reduced_to: 5
  - symbol: Ag # 6
    coordinates: [  0.664736100631734,  0.359437114752594,  0.156312891192626 ]
    mass: 107.868200
    reduced_to: 6
  - symbol: Ag # 7
    coordinates: [  0.664736100631734,  0.140562885247412,  0.656312891192626 ]
    mass: 107.868200
    reduced_to: 7
  - symbol: Ag # 8
    coordinates: [  0.335263899368259,  0.640562885247412,  0.843687108807375 ]
    mass: 107.868200
    reduced_to: 8
  - symbol: Te # 9
    coordinates: [  0.272366974864385,  0.143757766148095,  0.030510959795491 ]
    mass: 127.600000
    reduced_to: 9
  - symbol: Te # 10
    coordinates: [  0.727633025135608,  0.643757766148095,  0.469489040204510 ]
    mass: 127.600000
    reduced_to: 10
  - symbol: Te # 11
    coordinates: [  0.727633025135608,  0.856242233851910,  0.969489040204510 ]
    mass: 127.600000
    reduced_to: 11
  - symbol: Te # 12
    coordinates: [  0.272366974864385,  0.356242233851910,  0.530510959795491 ]
    mass: 127.600000
    reduced_to: 12

supercell:
  lattice:
  - [    22.366984663480203,    -0.000000000000000,     0.000000000000000 ] # a
  - [    -0.000000000000001,    24.118696492802957,     0.182464490515216 ] # b
  - [    -0.000000000000001,    -1.498360445499635,    23.460595794036021 ] # c
  points:
  - symbol: Ag # 1
    coordinates: [  0.025195872819250,  0.864350447331775,  0.780964270080295 ]
    mass: 107.868200
    reduced_to: 1
  - symbol: Ag # 2
    coordinates: [  0.025195872819250,  0.197683780665108,  0.780964270080295 ]
    mass: 107.868200
    reduced_to: 1
  - symbol: Ag # 3
    coordinates: [  0.025195872819250,  0.531017113998441,  0.780964270080295 ]
    mass: 107.868200
    reduced_to: 1
  - symbol: Ag # 4
    coordinates: [  0.225195872819250,  0.864350447331775,  0.780964270080295 ]
    mass: 107.868200
    reduced_to: 1
  - symbol: Ag # 5
    coordinates: [  0.225195872819250,  0.197683780665108,  0.780964270080295 ]
    mass: 107.868200
    reduced_to: 1
  - symbol: Ag # 6
    coordinates: [  0.225195872819250,  0.531017113998441,  0.780964270080295 ]
    mass: 107.868200
    reduced_to: 1
  - symbol: Ag # 7
    coordinates: [  0.425195872819250,  0.864350447331775,  0.780964270080295 ]
    mass: 107.868200
    reduced_to: 1
  - symbol: Ag # 8
    coordinates: [  0.425195872819250,  0.197683780665108,  0.780964270080295 ]
    mass: 107.868200
    reduced_to: 1
  - symbol: Ag # 9
    coordinates: [  0.425195872819250,  0.531017113998441,  0.780964270080295 ]
    mass: 107.868200
    reduced_to: 1
  - symbol: Ag # 10
    coordinates: [  0.625195872819250,  0.864350447331775,  0.780964270080295 ]
    mass: 107.868200
    reduced_to: 1
  - symbol: Ag # 11
    coordinates: [  0.625195872819250,  0.197683780665108,  0.780964270080295 ]
    mass: 107.868200
    reduced_to: 1
  - symbol: Ag # 12
    coordinates: [  0.625195872819250,  0.531017113998441,  0.780964270080295 ]
    mass: 107.868200
    reduced_to: 1
  - symbol: Ag # 13
    coordinates: [  0.825195872819250,  0.864350447331775,  0.780964270080295 ]
    mass: 107.868200
    reduced_to: 1
  - symbol: Ag # 14
    coordinates: [  0.825195872819250,  0.197683780665108,  0.780964270080295 ]
    mass: 107.868200
    reduced_to: 1
  - symbol: Ag # 15
    coordinates: [  0.825195872819250,  0.531017113998441,  0.780964270080295 ]
    mass: 107.868200
    reduced_to: 1
  - symbol: Ag # 16
    coordinates: [  0.025195872819250,  0.642128225109552,  0.447630936746962 ]
    mass: 107.868200
    reduced_to: 1
  - symbol: Ag # 17
    coordinates: [  0.025195872819250,  0.975461558442886,  0.447630936746962 ]
    mass: 107.868200
    reduced_to: 1
  - symbol: Ag # 18
    coordinates: [  0.025195872819250,  0.308794891776219,  0.447630936746962 ]
    mass: 107.868200
    reduced_to: 1
  - symbol: Ag # 19
    coordinates: [  0.225195872819250,  0.642128225109552,  0.447630936746962 ]
    mass: 107.868200
    reduced_to: 1
  - symbol: Ag # 20
    coordinates: [  0.225195872819250,  0.975461558442886,  0.447630936746962 ]
    mass: 107.868200
    reduced_to: 1
  - symbol: Ag # 21
    coordinates: [  0.225195872819250,  0.308794891776219,  0.447630936746962 ]
    mass: 107.868200
    reduced_to: 1
  - symbol: Ag # 22
    coordinates: [  0.425195872819250,  0.642128225109552,  0.447630936746962 ]
    mass: 107.868200
    reduced_to: 1
  - symbol: Ag # 23
    coordinates: [  0.425195872819250,  0.975461558442886,  0.447630936746962 ]
    mass: 107.868200
    reduced_to: 1
  - symbol: Ag # 24
    coordinates: [  0.425195872819250,  0.308794891776219,  0.447630936746962 ]
    mass: 107.868200
    reduced_to: 1
  - symbol: Ag # 25
    coordinates: [  0.625195872819250,  0.642128225109552,  0.447630936746962 ]
    mass: 107.868200
    reduced_to: 1
  - symbol: Ag # 26
    coordinates: [  0.625195872819250,  0.975461558442886,  0.447630936746962 ]
    mass: 107.868200
    reduced_to: 1
  - symbol: Ag # 27
    coordinates: [  0.625195872819250,  0.308794891776219,  0.447630936746962 ]
    mass: 107.868200
    reduced_to: 1
  - symbol: Ag # 28
    coordinates: [  0.825195872819250,  0.642128225109552,  0.447630936746962 ]
    mass: 107.868200
    reduced_to: 1
  - symbol: Ag # 29
    coordinates: [  0.825195872819250,  0.975461558442886,  0.447630936746962 ]
    mass: 107.868200
    reduced_to: 1
  - symbol: Ag # 30
    coordinates: [  0.825195872819250,  0.308794891776219,  0.447630936746962 ]
    mass: 107.868200
    reduced_to: 1
  - symbol: Ag # 31
    coordinates: [  0.025195872819250,  0.419906002887330,  0.114297603413628 ]
    mass: 107.868200
    reduced_to: 1
  - symbol: Ag # 32
    coordinates: [  0.025195872819250,  0.753239336220664,  0.114297603413628 ]
    mass: 107.868200
    reduced_to: 1
  - symbol: Ag # 33
    coordinates: [  0.025195872819250,  0.086572669553997,  0.114297603413628 ]
    mass: 107.868200
    reduced_to: 1
  - symbol: Ag # 34
    coordinates: [  0.225195872819250,  0.419906002887330,  0.114297603413628 ]
    mass: 107.868200
    reduced_to: 1
  - symbol: Ag # 35
    coordinates: [  0.225195872819250,  0.753239336220664,  0.114297603413628 ]
    mass: 107.868200
    reduced_to: 1
  - symbol: Ag # 36
    coordinates: [  0.225195872819250,  0.086572669553997,  0.114297603413628 ]
    mass: 107.868200
    reduced_to: 1
  - symbol: Ag # 37
    coordinates: [  0.425195872819250,  0.419906002887330,  0.114297603413628 ]
    mass: 107.868200
    reduced_to: 1
  - symbol: Ag # 38
    coordinates: [  0.425195872819250,  0.753239336220664,  0.114297603413628 ]
    mass: 107.868200
    reduced_to: 1
  - symbol: Ag # 39
    coordinates: [  0.425195872819250,  0.086572669553997,  0.114297603413628 ]
    mass: 107.868200
    reduced_to: 1
  - symbol: Ag # 40
    coordinates: [  0.625195872819250,  0.419906002887330,  0.114297603413628 ]
    mass: 107.868200
    reduced_to: 1
  - symbol: Ag # 41
    coordinates: [  0.625195872819250,  0.753239336220664,  0.114297603413628 ]
    mass: 107.868200
    reduced_to: 1
  - symbol: Ag # 42
    coordinates: [  0.625195872819250,  0.086572669553997,  0.114297603413628 ]
    mass: 107.868200
    reduced_to: 1
  - symbol: Ag # 43
    coordinates: [  0.825195872819250,  0.419906002887330,  0.114297603413628 ]
    mass: 107.868200
    reduced_to: 1
  - symbol: Ag # 44
    coordinates: [  0.825195872819250,  0.753239336220664,  0.114297603413628 ]
    mass: 107.868200
    reduced_to: 1
  - symbol: Ag # 45
    coordinates: [  0.825195872819250,  0.086572669553997,  0.114297603413628 ]
    mass: 107.868200
    reduced_to: 1
  - symbol: Ag # 46
    coordinates: [  0.125195872819250,  0.135649552668223,  0.719035729919705 ]
    mass: 107.868200
    reduced_to: 46
  - symbol: Ag # 47
    coordinates: [  0.125195872819250,  0.468982886001556,  0.719035729919705 ]
    mass: 107.868200
    reduced_to: 46
  - symbol: Ag # 48
    coordinates: [  0.125195872819250,  0.802316219334890,  0.719035729919705 ]
    mass: 107.868200
    reduced_to: 46
  - symbol: Ag # 49
    coordinates: [  0.325195872819250,  0.135649552668223,  0.719035729919705 ]
    mass: 107.868200
    reduced_to: 46
  - symbol: Ag # 50
    coordinates: [  0.325195872819250,  0.468982886001556,  0.719035729919705 ]
    mass: 107.868200
    reduced_to: 46
  - symbol: Ag # 51
    coordinates: [  0.325195872819250,  0.802316219334890,  0.719035729919705 ]
    mass: 107.868200
    reduced_to: 46
  - symbol: Ag # 52
    coordinates: [  0.525195872819250,  0.135649552668223,  0.719035729919705 ]
    mass: 107.868200
    reduced_to: 46
  - symbol: Ag # 53
    coordinates: [  0.525195872819250,  0.468982886001556,  0.719035729919705 ]
    mass: 107.868200
    reduced_to: 46
  - symbol: Ag # 54
    coordinates: [  0.525195872819250,  0.802316219334890,  0.719035729919705 ]
    mass: 107.868200
    reduced_to: 46
  - symbol: Ag # 55
    coordinates: [  0.725195872819250,  0.135649552668223,  0.719035729919705 ]
    mass: 107.868200
    reduced_to: 46
  - symbol: Ag # 56
    coordinates: [  0.725195872819250,  0.468982886001556,  0.719035729919705 ]
    mass: 107.868200
    reduced_to: 46
  - symbol: Ag # 57
    coordinates: [  0.725195872819250,  0.802316219334890,  0.719035729919705 ]
    mass: 107.868200
    reduced_to: 46
  - symbol: Ag # 58
    coordinates: [  0.925195872819250,  0.135649552668223,  0.719035729919705 ]
    mass: 107.868200
    reduced_to: 46
  - symbol: Ag # 59
    coordinates: [  0.925195872819250,  0.468982886001556,  0.719035729919705 ]
    mass: 107.868200
    reduced_to: 46
  - symbol: Ag # 60
    coordinates: [  0.925195872819250,  0.802316219334890,  0.719035729919705 ]
    mass: 107.868200
    reduced_to: 46
  - symbol: Ag # 61
    coordinates: [  0.125195872819250,  0.913427330446001,  0.385702396586371 ]
    mass: 107.868200
    reduced_to: 46
  - symbol: Ag # 62
    coordinates: [  0.125195872819250,  0.246760663779334,  0.385702396586371 ]
    mass: 107.868200
    reduced_to: 46
  - symbol: Ag # 63
    coordinates: [  0.125195872819250,  0.580093997112668,  0.385702396586371 ]
    mass: 107.868200
    reduced_to: 46
  - symbol: Ag # 64
    coordinates: [  0.325195872819250,  0.913427330446001,  0.385702396586371 ]
    mass: 107.868200
    reduced_to: 46
  - symbol: Ag # 65
    coordinates: [  0.325195872819250,  0.246760663779334,  0.385702396586371 ]
    mass: 107.868200
    reduced_to: 46
  - symbol: Ag # 66
    coordinates: [  0.325195872819250,  0.580093997112668,  0.385702396586371 ]
    mass: 107.868200
    reduced_to: 46
  - symbol: Ag # 67
    coordinates: [  0.525195872819250,  0.913427330446001,  0.385702396586371 ]
    mass: 107.868200
    reduced_to: 46
  - symbol: Ag # 68
    coordinates: [  0.525195872819250,  0.246760663779334,  0.385702396586371 ]
    mass: 107.868200
    reduced_to: 46
  - symbol: Ag # 69
    coordinates: [  0.525195872819250,  0.580093997112668,  0.385702396586371 ]
    mass: 107.868200
    reduced_to: 46
  - symbol: Ag # 70
    coordinates: [  0.725195872819250,  0.913427330446001,  0.385702396586371 ]
    mass: 107.868200
    reduced_to: 46
  - symbol: Ag # 71
    coordinates: [  0.725195872819250,  0.246760663779334,  0.385702396586371 ]
    mass: 107.868200
    reduced_to: 46
  - symbol: Ag # 72
    coordinates: [  0.725195872819250,  0.580093997112668,  0.385702396586371 ]
    mass: 107.868200
    reduced_to: 46
  - symbol: Ag # 73
    coordinates: [  0.925195872819250,  0.913427330446001,  0.385702396586371 ]
    mass: 107.868200
    reduced_to: 46
  - symbol: Ag # 74
    coordinates: [  0.925195872819250,  0.246760663779334,  0.385702396586371 ]
    mass: 107.868200
    reduced_to: 46
  - symbol: Ag # 75
    coordinates: [  0.925195872819250,  0.580093997112668,  0.385702396586371 ]
    mass: 107.868200
    reduced_to: 46
  - symbol: Ag # 76
    coordinates: [  0.125195872819250,  0.691205108223778,  0.052369063253038 ]
    mass: 107.868200
    reduced_to: 46
  - symbol: Ag # 77
    coordinates: [  0.125195872819250,  0.024538441557112,  0.052369063253038 ]
    mass: 107.868200
    reduced_to: 46
  - symbol: Ag # 78
    coordinates: [  0.125195872819250,  0.357871774890445,  0.052369063253038 ]
    mass: 107.868200
    reduced_to: 46
  - symbol: Ag # 79
    coordinates: [  0.325195872819250,  0.691205108223778,  0.052369063253038 ]
    mass: 107.868200
    reduced_to: 46
  - symbol: Ag # 80
    coordinates: [  0.325195872819250,  0.024538441557112,  0.052369063253038 ]
    mass: 107.868200
    reduced_to: 46
  - symbol: Ag # 81
    coordinates: [  0.325195872819250,  0.357871774890445,  0.052369063253038 ]
    mass: 107.868200
    reduced_to: 46
  - symbol: Ag # 82
    coordinates: [  0.525195872819250,  0.691205108223778,  0.052369063253038 ]
    mass: 107.868200
    reduced_to: 46
  - symbol: Ag # 83
    coordinates: [  0.525195872819250,  0.024538441557112,  0.052369063253038 ]
    mass: 107.868200
    reduced_to: 46
  - symbol: Ag # 84
    coordinates: [  0.525195872819250,  0.357871774890445,  0.052369063253038 ]
    mass: 107.868200
    reduced_to: 46
  - symbol: Ag # 85
    coordinates: [  0.725195872819250,  0.691205108223778,  0.052369063253038 ]
    mass: 107.868200
    reduced_to: 46
  - symbol: Ag # 86
    coordinates: [  0.725195872819250,  0.024538441557112,  0.052369063253038 ]
    mass: 107.868200
    reduced_to: 46
  - symbol: Ag # 87
    coordinates: [  0.725195872819250,  0.357871774890445,  0.052369063253038 ]
    mass: 107.868200
    reduced_to: 46
  - symbol: Ag # 88
    coordinates: [  0.925195872819250,  0.691205108223778,  0.052369063253038 ]
    mass: 107.868200
    reduced_to: 46
  - symbol: Ag # 89
    coordinates: [  0.925195872819250,  0.024538441557112,  0.052369063253038 ]
    mass: 107.868200
    reduced_to: 46
  - symbol: Ag # 90
    coordinates: [  0.925195872819250,  0.357871774890445,  0.052369063253038 ]
    mass: 107.868200
    reduced_to: 46
  - symbol: Ag # 91
    coordinates: [  0.174804127180751,  0.246760663779334,  0.885702396586371 ]
    mass: 107.868200
    reduced_to: 91
  - symbol: Ag # 92
    coordinates: [  0.174804127180751,  0.580093997112667,  0.885702396586371 ]
    mass: 107.868200
    reduced_to: 91
  - symbol: Ag # 93
    coordinates: [  0.174804127180751,  0.913427330446001,  0.885702396586371 ]
    mass: 107.868200
    reduced_to: 91
  - symbol: Ag # 94
    coordinates: [  0.374804127180751,  0.246760663779334,  0.885702396586371 ]
    mass: 107.868200
    reduced_to: 91
  - symbol: Ag # 95
    coordinates: [  0.374804127180751,  0.580093997112667,  0.885702396586371 ]
    mass: 107.868200
    reduced_to: 91
  - symbol: Ag # 96
    coordinates: [  0.374804127180751,  0.913427330446001,  0.885702396586371 ]
    mass: 107.868200
    reduced_to: 91
  - symbol: Ag # 97
    coordinates: [  0.574804127180751,  0.246760663779334,  0.885702396586371 ]
    mass: 107.868200
    reduced_to: 91
  - symbol: Ag # 98
    coordinates: [  0.574804127180751,  0.580093997112667,  0.885702396586371 ]
    mass: 107.868200
    reduced_to: 91
  - symbol: Ag # 99
    coordinates: [  0.574804127180751,  0.913427330446001,  0.885702396586371 ]
    mass: 107.868200
    reduced_to: 91
  - symbol: Ag # 100
    coordinates: [  0.774804127180751,  0.246760663779334,  0.885702396586371 ]
    mass: 107.868200
    reduced_to: 91
  - symbol: Ag # 101
    coordinates: [  0.774804127180751,  0.580093997112667,  0.885702396586371 ]
    mass: 107.868200
    reduced_to: 91
  - symbol: Ag # 102
    coordinates: [  0.774804127180751,  0.913427330446001,  0.885702396586371 ]
    mass: 107.868200
    reduced_to: 91
  - symbol: Ag # 103
    coordinates: [  0.974804127180751,  0.246760663779334,  0.885702396586371 ]
    mass: 107.868200
    reduced_to: 91
  - symbol: Ag # 104
    coordinates: [  0.974804127180751,  0.580093997112667,  0.885702396586371 ]
    mass: 107.868200
    reduced_to: 91
  - symbol: Ag # 105
    coordinates: [  0.974804127180751,  0.913427330446001,  0.885702396586371 ]
    mass: 107.868200
    reduced_to: 91
  - symbol: Ag # 106
    coordinates: [  0.174804127180751,  0.024538441557112,  0.552369063253038 ]
    mass: 107.868200
    reduced_to: 91
  - symbol: Ag # 107
    coordinates: [  0.174804127180751,  0.357871774890445,  0.552369063253038 ]
    mass: 107.868200
    reduced_to: 91
  - symbol: Ag # 108
    coordinates: [  0.174804127180751,  0.691205108223779,  0.552369063253038 ]
    mass: 107.868200
    reduced_to: 91
  - symbol: Ag # 109
    coordinates: [  0.374804127180751,  0.024538441557112,  0.552369063253038 ]
    mass: 107.868200
    reduced_to: 91
  - symbol: Ag # 110
    coordinates: [  0.374804127180751,  0.357871774890445,  0.552369063253038 ]
    mass: 107.868200
    reduced_to: 91
  - symbol: Ag # 111
    coordinates: [  0.374804127180751,  0.691205108223779,  0.552369063253038 ]
    mass: 107.868200
    reduced_to: 91
  - symbol: Ag # 112
    coordinates: [  0.574804127180751,  0.024538441557112,  0.552369063253038 ]
    mass: 107.868200
    reduced_to: 91
  - symbol: Ag # 113
    coordinates: [  0.574804127180751,  0.357871774890445,  0.552369063253038 ]
    mass: 107.868200
    reduced_to: 91
  - symbol: Ag # 114
    coordinates: [  0.574804127180751,  0.691205108223779,  0.552369063253038 ]
    mass: 107.868200
    reduced_to: 91
  - symbol: Ag # 115
    coordinates: [  0.774804127180751,  0.024538441557112,  0.552369063253038 ]
    mass: 107.868200
    reduced_to: 91
  - symbol: Ag # 116
    coordinates: [  0.774804127180751,  0.357871774890445,  0.552369063253038 ]
    mass: 107.868200
    reduced_to: 91
  - symbol: Ag # 117
    coordinates: [  0.774804127180751,  0.691205108223779,  0.552369063253038 ]
    mass: 107.868200
    reduced_to: 91
  - symbol: Ag # 118
    coordinates: [  0.974804127180751,  0.024538441557112,  0.552369063253038 ]
    mass: 107.868200
    reduced_to: 91
  - symbol: Ag # 119
    coordinates: [  0.974804127180751,  0.357871774890445,  0.552369063253038 ]
    mass: 107.868200
    reduced_to: 91
  - symbol: Ag # 120
    coordinates: [  0.974804127180751,  0.691205108223779,  0.552369063253038 ]
    mass: 107.868200
    reduced_to: 91
  - symbol: Ag # 121
    coordinates: [  0.174804127180751,  0.802316219334890,  0.219035729919705 ]
    mass: 107.868200
    reduced_to: 91
  - symbol: Ag # 122
    coordinates: [  0.174804127180751,  0.135649552668223,  0.219035729919705 ]
    mass: 107.868200
    reduced_to: 91
  - symbol: Ag # 123
    coordinates: [  0.174804127180751,  0.468982886001556,  0.219035729919705 ]
    mass: 107.868200
    reduced_to: 91
  - symbol: Ag # 124
    coordinates: [  0.374804127180751,  0.802316219334890,  0.219035729919705 ]
    mass: 107.868200
    reduced_to: 91
  - symbol: Ag # 125
    coordinates: [  0.374804127180751,  0.135649552668223,  0.219035729919705 ]
    mass: 107.868200
    reduced_to: 91
  - symbol: Ag # 126
    coordinates: [  0.374804127180751,  0.468982886001556,  0.219035729919705 ]
    mass: 107.868200
    reduced_to: 91
  - symbol: Ag # 127
    coordinates: [  0.574804127180751,  0.802316219334890,  0.219035729919705 ]
    mass: 107.868200
    reduced_to: 91
  - symbol: Ag # 128
    coordinates: [  0.574804127180751,  0.135649552668223,  0.219035729919705 ]
    mass: 107.868200
    reduced_to: 91
  - symbol: Ag # 129
    coordinates: [  0.574804127180751,  0.468982886001556,  0.219035729919705 ]
    mass: 107.868200
    reduced_to: 91
  - symbol: Ag # 130
    coordinates: [  0.774804127180751,  0.802316219334890,  0.219035729919705 ]
    mass: 107.868200
    reduced_to: 91
  - symbol: Ag # 131
    coordinates: [  0.774804127180751,  0.135649552668223,  0.219035729919705 ]
    mass: 107.868200
    reduced_to: 91
  - symbol: Ag # 132
    coordinates: [  0.774804127180751,  0.468982886001556,  0.219035729919705 ]
    mass: 107.868200
    reduced_to: 91
  - symbol: Ag # 133
    coordinates: [  0.974804127180751,  0.802316219334890,  0.219035729919705 ]
    mass: 107.868200
    reduced_to: 91
  - symbol: Ag # 134
    coordinates: [  0.974804127180751,  0.135649552668223,  0.219035729919705 ]
    mass: 107.868200
    reduced_to: 91
  - symbol: Ag # 135
    coordinates: [  0.974804127180751,  0.468982886001556,  0.219035729919705 ]
    mass: 107.868200
    reduced_to: 91
  - symbol: Ag # 136
    coordinates: [  0.074804127180751,  0.975461558442886,  0.947630936746962 ]
    mass: 107.868200
    reduced_to: 136
  - symbol: Ag # 137
    coordinates: [  0.074804127180751,  0.308794891776219,  0.947630936746962 ]
    mass: 107.868200
    reduced_to: 136
  - symbol: Ag # 138
    coordinates: [  0.074804127180751,  0.642128225109552,  0.947630936746962 ]
    mass: 107.868200
    reduced_to: 136
  - symbol: Ag # 139
    coordinates: [  0.274804127180751,  0.975461558442886,  0.947630936746962 ]
    mass: 107.868200
    reduced_to: 136
  - symbol: Ag # 140
    coordinates: [  0.274804127180751,  0.308794891776219,  0.947630936746962 ]
    mass: 107.868200
    reduced_to: 136
  - symbol: Ag # 141
    coordinates: [  0.274804127180751,  0.642128225109552,  0.947630936746962 ]
    mass: 107.868200
    reduced_to: 136
  - symbol: Ag # 142
    coordinates: [  0.474804127180751,  0.975461558442886,  0.947630936746962 ]
    mass: 107.868200
    reduced_to: 136
  - symbol: Ag # 143
    coordinates: [  0.474804127180751,  0.308794891776219,  0.947630936746962 ]
    mass: 107.868200
    reduced_to: 136
  - symbol: Ag # 144
    coordinates: [  0.474804127180751,  0.642128225109552,  0.947630936746962 ]
    mass: 107.868200
    reduced_to: 136
  - symbol: Ag # 145
    coordinates: [  0.674804127180752,  0.975461558442886,  0.947630936746962 ]
    mass: 107.868200
    reduced_to: 136
  - symbol: Ag # 146
    coordinates: [  0.674804127180752,  0.308794891776219,  0.947630936746962 ]
    mass: 107.868200
    reduced_to: 136
  - symbol: Ag # 147
    coordinates: [  0.674804127180752,  0.642128225109552,  0.947630936746962 ]
    mass: 107.868200
    reduced_to: 136
  - symbol: Ag # 148
    coordinates: [  0.874804127180751,  0.975461558442886,  0.947630936746962 ]
    mass: 107.868200
    reduced_to: 136
  - symbol: Ag # 149
    coordinates: [  0.874804127180751,  0.308794891776219,  0.947630936746962 ]
    mass: 107.868200
    reduced_to: 136
  - symbol: Ag # 150
    coordinates: [  0.874804127180751,  0.642128225109552,  0.947630936746962 ]
    mass: 107.868200
    reduced_to: 136
  - symbol: Ag # 151
    coordinates: [  0.074804127180751,  0.753239336220664,  0.614297603413628 ]
    mass: 107.868200
    reduced_to: 136
  - symbol: Ag # 152
    coordinates: [  0.074804127180751,  0.086572669553997,  0.614297603413628 ]
    mass: 107.868200
    reduced_to: 136
  - symbol: Ag # 153
    coordinates: [  0.074804127180751,  0.419906002887330,  0.614297603413628 ]
    mass: 107.868200
    reduced_to: 136
  - symbol: Ag # 154
    coordinates: [  0.274804127180751,  0.753239336220664,  0.614297603413628 ]
    mass: 107.868200
    reduced_to: 136
  - symbol: Ag # 155
    coordinates: [  0.274804127180751,  0.086572669553997,  0.614297603413628 ]
    mass: 107.868200
    reduced_to: 136
  - symbol: Ag # 156
    coordinates: [  0.274804127180751,  0.419906002887330,  0.614297603413628 ]
    mass: 107.868200
    reduced_to: 136
  - symbol: Ag # 157
    coordinates: [  0.474804127180751,  0.753239336220664,  0.614297603413628 ]
    mass: 107.868200
    reduced_to: 136
  - symbol: Ag # 158
    coordinates: [  0.474804127180751,  0.086572669553997,  0.614297603413628 ]
    mass: 107.868200
    reduced_to: 136
  - symbol: Ag # 159
    coordinates: [  0.474804127180751,  0.419906002887330,  0.614297603413628 ]
    mass: 107.868200
    reduced_to: 136
  - symbol: Ag # 160
    coordinates: [  0.674804127180752,  0.753239336220664,  0.614297603413628 ]
    mass: 107.868200
    reduced_to: 136
  - symbol: Ag # 161
    coordinates: [  0.674804127180752,  0.086572669553997,  0.614297603413628 ]
    mass: 107.868200
    reduced_to: 136
  - symbol: Ag # 162
    coordinates: [  0.674804127180752,  0.419906002887330,  0.614297603413628 ]
    mass: 107.868200
    reduced_to: 136
  - symbol: Ag # 163
    coordinates: [  0.874804127180751,  0.753239336220664,  0.614297603413628 ]
    mass: 107.868200
    reduced_to: 136
  - symbol: Ag # 164
    coordinates: [  0.874804127180751,  0.086572669553997,  0.614297603413628 ]
    mass: 107.868200
    reduced_to: 136
  - symbol: Ag # 165
    coordinates: [  0.874804127180751,  0.419906002887330,  0.614297603413628 ]
    mass: 107.868200
    reduced_to: 136
  - symbol: Ag # 166
    coordinates: [  0.074804127180751,  0.531017113998441,  0.280964270080295 ]
    mass: 107.868200
    reduced_to: 136
  - symbol: Ag # 167
    coordinates: [  0.074804127180751,  0.864350447331775,  0.280964270080295 ]
    mass: 107.868200
    reduced_to: 136
  - symbol: Ag # 168
    coordinates: [  0.074804127180751,  0.197683780665108,  0.280964270080295 ]
    mass: 107.868200
    reduced_to: 136
  - symbol: Ag # 169
    coordinates: [  0.274804127180751,  0.531017113998441,  0.280964270080295 ]
    mass: 107.868200
    reduced_to: 136
  - symbol: Ag # 170
    coordinates: [  0.274804127180751,  0.864350447331775,  0.280964270080295 ]
    mass: 107.868200
    reduced_to: 136
  - symbol: Ag # 171
    coordinates: [  0.274804127180751,  0.197683780665108,  0.280964270080295 ]
    mass: 107.868200
    reduced_to: 136
  - symbol: Ag # 172
    coordinates: [  0.474804127180751,  0.531017113998441,  0.280964270080295 ]
    mass: 107.868200
    reduced_to: 136
  - symbol: Ag # 173
    coordinates: [  0.474804127180751,  0.864350447331775,  0.280964270080295 ]
    mass: 107.868200
    reduced_to: 136
  - symbol: Ag # 174
    coordinates: [  0.474804127180751,  0.197683780665108,  0.280964270080295 ]
    mass: 107.868200
    reduced_to: 136
  - symbol: Ag # 175
    coordinates: [  0.674804127180752,  0.531017113998441,  0.280964270080295 ]
    mass: 107.868200
    reduced_to: 136
  - symbol: Ag # 176
    coordinates: [  0.674804127180752,  0.864350447331775,  0.280964270080295 ]
    mass: 107.868200
    reduced_to: 136
  - symbol: Ag # 177
    coordinates: [  0.674804127180752,  0.197683780665108,  0.280964270080295 ]
    mass: 107.868200
    reduced_to: 136
  - symbol: Ag # 178
    coordinates: [  0.874804127180751,  0.531017113998441,  0.280964270080295 ]
    mass: 107.868200
    reduced_to: 136
  - symbol: Ag # 179
    coordinates: [  0.874804127180751,  0.864350447331775,  0.280964270080295 ]
    mass: 107.868200
    reduced_to: 136
  - symbol: Ag # 180
    coordinates: [  0.874804127180751,  0.197683780665108,  0.280964270080295 ]
    mass: 107.868200
    reduced_to: 136
  - symbol: Ag # 181