phonopy:
  version: "2.27.0"
  frequency_unit_conversion_factor: 15.633302
  symmetry_tolerance: 1.00000e-04

space_group:
  type: "P2_1/c"
  number: 14
  Hall_symbol: "-P 2ybc"

primitive_matrix:
- [  1.000000000000000,  0.000000000000000, -0.000000000000000 ]
- [  0.000000000000000, -1.000000000000000,  0.000000000000000 ]
- [  0.000000000000000, -0.000000000000000, -1.000000000000000 ]

supercell_matrix:
- [   0,   2,   0 ]
- [   3,   0,   0 ]
- [   0,   0,  -2 ]

primitive_cell:
  lattice:
  - [    -0.000000000000000,     7.037720834568534,    -0.024312508182192 ] # a
  - [   -13.789686270733407,     0.000000000000000,     0.000000000000000 ] # b
  - [     0.000000000000001,     0.017279856106811,    15.989621368011553 ] # c
  points:
  - symbol: Ba # 1
    coordinates: [  0.474921541863515,  0.482444676012106,  0.252900339482443 ]
    mass: 137.327000
  - symbol: Ba # 2
    coordinates: [  0.525078458136469,  0.982444676012105,  0.247099660517563 ]
    mass: 137.327000
  - symbol: Ba # 3
    coordinates: [  0.525078458136468,  0.517555323987895,  0.747099660517562 ]
    mass: 137.327000
  - symbol: Ba # 4
    coordinates: [  0.474921541863515,  0.017555323987895,  0.752900339482442 ]
    mass: 137.327000
  - symbol: Ba # 5
    coordinates: [  0.975152716437125,  0.231557271201759,  0.739386167391191 ]
    mass: 137.327000
  - symbol: Ba # 6
    coordinates: [  0.024847283562859,  0.731557271201759,  0.760613832608814 ]
    mass: 137.327000
  - symbol: Ba # 7
    coordinates: [  0.024847283562860,  0.768442728798241,  0.260613832608814 ]
    mass: 137.327000
  - symbol: Ba # 8
    coordinates: [  0.975152716437124,  0.268442728798241,  0.239386167391191 ]
    mass: 137.327000
  - symbol: Ba # 9
    coordinates: [  0.742985303041034,  0.127183765501437,  0.494219883093291 ]
    mass: 137.327000
  - symbol: Ba # 10
    coordinates: [  0.257014696958950,  0.627183765501437,  0.005780116906714 ]
    mass: 137.327000
  - symbol: Ba # 11
    coordinates: [  0.257014696958950,  0.872816234498563,  0.505780116906714 ]
    mass: 137.327000
  - symbol: Ba # 12
    coordinates: [  0.742985303041034,  0.372816234498564,  0.994219883093290 ]
    mass: 137.327000
  - symbol: Ba # 13
    coordinates: [  0.245417927587182,  0.379580773226418,  0.497464035642304 ]
    mass: 137.327000
  - symbol: Ba # 14
    coordinates: [  0.754582072412803,  0.879580773226417,  0.002535964357701 ]
    mass: 137.327000
  - symbol: Ba # 15
    coordinates: [  0.754582072412803,  0.620419226773583,  0.502535964357701 ]
    mass: 137.327000
  - symbol: Ba # 16
    coordinates: [  0.245417927587181,  0.120419226773583,  0.997464035642304 ]
    mass: 137.327000
  - symbol: Sb # 17
    coordinates: [  0.748831605041575,  0.380622739094708,  0.417067321236481 ]
    mass: 121.760000
  - symbol: Sb # 18
    coordinates: [  0.251168394958409,  0.880622739094708,  0.082932678763524 ]
    mass: 121.760000
  - symbol: Sb # 19
    coordinates: [  0.251168394958409,  0.619377260905292,  0.582932678763524 ]
    mass: 121.760000
  - symbol: Sb # 20
    coordinates: [  0.748831605041575,  0.119377260905293,  0.917067321236481 ]
    mass: 121.760000
  - symbol: Sb # 21
    coordinates: [  0.002812388486385,  0.014073214957679,  0.171569061204046 ]
    mass: 121.760000
  - symbol: Sb # 22
    coordinates: [  0.997187611513598,  0.514073214957678,  0.328430938795959 ]
    mass: 121.760000
  - symbol: Sb # 23
    coordinates: [  0.997187611513598,  0.985926785042321,  0.828430938795959 ]
    mass: 121.760000
  - symbol: Sb # 24
    coordinates: [  0.002812388486385,  0.485926785042322,  0.671569061204045 ]
    mass: 121.760000
  - symbol: Sb # 25
    coordinates: [  0.096003179089340,  0.455551257356979,  0.848297775165404 ]
    mass: 121.760000
  - symbol: Sb # 26
    coordinates: [  0.903996820910644,  0.955551257356978,  0.651702224834600 ]
    mass: 121.760000
  - symbol: Sb # 27
    coordinates: [  0.903996820910643,  0.544448742643022,  0.151702224834600 ]
    mass: 121.760000
  - symbol: Sb # 28
    coordinates: [  0.096003179089340,  0.044448742643022,  0.348297775165405 ]
    mass: 121.760000
  - symbol: Sb # 29
    coordinates: [  0.397949779567675,  0.205688636188754,  0.343811417135347 ]
    mass: 121.760000
  - symbol: Sb # 30
    coordinates: [  0.602050220432308,  0.705688636188754,  0.156188582864658 ]
    mass: 121.760000
  - symbol: Sb # 31
    coordinates: [  0.602050220432309,  0.794311363811247,  0.656188582864658 ]
    mass: 121.760000
  - symbol: Sb # 32
    coordinates: [  0.397949779567674,  0.294311363811247,  0.843811417135347 ]
    mass: 121.760000
  - symbol: Sb # 33
    coordinates: [  0.248448363368624,  0.367874497775008,  0.066494344282981 ]
    mass: 121.760000
  - symbol: Sb # 34
    coordinates: [  0.751551636631359,  0.867874497775007,  0.433505655717024 ]
    mass: 121.760000
  - symbol: Sb # 35
    coordinates: [  0.751551636631359,  0.632125502224993,  0.933505655717024 ]
    mass: 121.760000
  - symbol: Sb # 36
    coordinates: [  0.248448363368625,  0.132125502224993,  0.566494344282980 ]
    mass: 121.760000
  - symbol: Sb # 37
    coordinates: [  0.491465042371584,  0.238262405052063,  0.166330392278361 ]
    mass: 121.760000
  - symbol: Sb # 38
    coordinates: [  0.508534957628399,  0.738262405052062,  0.333669607721645 ]
    mass: 121.760000
  - symbol: Sb # 39
    coordinates: [  0.508534957628399,  0.761737594947938,  0.833669607721645 ]
    mass: 121.760000
  - symbol: Sb # 40
    coordinates: [  0.491465042371584,  0.261737594947938,  0.666330392278361 ]
    mass: 121.760000
  reciprocal_lattice: # without 2pi
  - [    -0.000000000000000,     0.142090925480274,    -0.000153556528317 ] # a*
  - [    -0.072517965990449,    -0.000000000000000,     0.000000000000000 ] # b*
  - [     0.000000000000000,     0.000216051819417,     0.062540334360651 ] # c*

unit_cell:
  lattice:
  - [    -0.000000000000000,     7.037720834568533,    -0.024312508182192 ] # a
  - [    13.789686270733405,     0.000000000000000,    -0.000000000000000 ] # b
  - [    -0.000000000000001,    -0.017279856106811,   -15.989621368011550 ] # c
  points:
  - symbol: Ba # 1
    coordinates: [  0.474921541863515,  0.517555323987894,  0.747099660517557 ]
    mass: 137.327000
    reduced_to: 1
  - symbol: Ba # 2
    coordinates: [  0.525078458136469,  0.017555323987895,  0.752900339482437 ]
    mass: 137.327000
    reduced_to: 2
  - symbol: Ba # 3
    coordinates: [  0.525078458136468,  0.482444676012105,  0.252900339482437 ]
    mass: 137.327000
    reduced_to: 3
  - symbol: Ba # 4
    coordinates: [  0.474921541863515,  0.982444676012105,  0.247099660517557 ]
    mass: 137.327000
    reduced_to: 4
  - symbol: Ba # 5
    coordinates: [  0.975152716437125,  0.768442728798241,  0.260613832608809 ]
    mass: 137.327000
    reduced_to: 5
  - symbol: Ba # 6
    coordinates: [  0.024847283562859,  0.268442728798241,  0.239386167391186 ]
    mass: 137.327000
    reduced_to: 6
  - symbol: Ba # 7
    coordinates: [  0.024847283562860,  0.231557271201759,  0.739386167391186 ]
    mass: 137.327000
    reduced_to: 7
  - symbol: Ba # 8
    coordinates: [  0.975152716437124,  0.731557271201759,  0.760613832608809 ]
    mass: 137.327000
    reduced_to: 8
  - symbol: Ba # 9
    coordinates: [  0.742985303041034,  0.872816234498563,  0.505780116906709 ]
    mass: 137.327000
    reduced_to: 9
  - symbol: Ba # 10
    coordinates: [  0.257014696958950,  0.372816234498563,  0.994219883093285 ]
    mass: 137.327000
    reduced_to: 10
  - symbol: Ba # 11
    coordinates: [  0.257014696958950,  0.127183765501437,  0.494219883093285 ]
    mass: 137.327000
    reduced_to: 11
  - symbol: Ba # 12
    coordinates: [  0.742985303041034,  0.627183765501436,  0.005780116906709 ]
    mass: 137.327000
    reduced_to: 12
  - symbol: Ba # 13
    coordinates: [  0.245417927587182,  0.620419226773583,  0.502535964357696 ]
    mass: 137.327000
    reduced_to: 13
  - symbol: Ba # 14
    coordinates: [  0.754582072412803,  0.120419226773583,  0.997464035642299 ]
    mass: 137.327000
    reduced_to: 14
  - symbol: Ba # 15
    coordinates: [  0.754582072412803,  0.379580773226417,  0.497464035642299 ]
    mass: 137.327000
    reduced_to: 15
  - symbol: Ba # 16
    coordinates: [  0.245417927587181,  0.879580773226417,  0.002535964357695 ]
    mass: 137.327000
    reduced_to: 16
  - symbol: Sb # 17
    coordinates: [  0.748831605041575,  0.619377260905292,  0.582932678763518 ]
    mass: 121.760000
    reduced_to: 17
  - symbol: Sb # 18
    coordinates: [  0.251168394958409,  0.119377260905292,  0.917067321236475 ]
    mass: 121.760000
    reduced_to: 18
  - symbol: Sb # 19
    coordinates: [  0.251168394958409,  0.380622739094708,  0.417067321236476 ]
    mass: 121.760000
    reduced_to: 19
  - symbol: Sb # 20
    coordinates: [  0.748831605041575,  0.880622739094708,  0.082932678763519 ]
    mass: 121.760000
    reduced_to: 20
  - symbol: Sb # 21
    coordinates: [  1.002812388486385,  0.985926785042321,  0.828430938795954 ]
    mass: 121.760000
    reduced_to: 21
  - symbol: Sb # 22
    coordinates: [ -0.002812388486402,  0.485926785042322,  0.671569061204041 ]
    mass: 121.760000
    reduced_to: 22
  - symbol: Sb # 23
    coordinates: [ -0.002812388486401,  0.014073214957679,  0.171569061204040 ]
    mass: 121.760000
    reduced_to: 23
  - symbol: Sb # 24
    coordinates: [  1.002812388486385,  0.514073214957679,  0.328430938795954 ]
    mass: 121.760000
    reduced_to: 24
  - symbol: Sb # 25
    coordinates: [  0.096003179089340,  0.544448742643021,  0.151702224834596 ]
    mass: 121.760000
    reduced_to: 25
  - symbol: Sb # 26
    coordinates: [  0.903996820910644,  0.044448742643022,  0.348297775165399 ]
    mass: 121.760000
    reduced_to: 26
  - symbol: Sb # 27
    coordinates: [  0.903996820910643,  0.455551257356978,  0.848297775165399 ]
    mass: 121.760000
    reduced_to: 27
  - symbol: Sb # 28
    coordinates: [  0.096003179089340,  0.955551257356978,  0.651702224834595 ]
    mass: 121.760000
    reduced_to: 28
  - symbol: Sb # 29
    coordinates: [  0.397949779567675,  0.794311363811246,  0.656188582864652 ]
    mass: 121.760000
    reduced_to: 29
  - symbol: Sb # 30
    coordinates: [  0.602050220432308,  0.294311363811246,  0.843811417135342 ]
    mass: 121.760000
    reduced_to: 30
  - symbol: Sb # 31
    coordinates: [  0.602050220432309,  0.205688636188753,  0.343811417135342 ]
    mass: 121.760000
    reduced_to: 31
  - symbol: Sb # 32
    coordinates: [  0.397949779567674,  0.705688636188753,  0.156188582864652 ]
    mass: 121.760000
    reduced_to: 32
  - symbol: Sb # 33
    coordinates: [  0.248448363368624,  0.632125502224992,  0.933505655717018 ]
    mass: 121.760000
    reduced_to: 33
  - symbol: Sb # 34
    coordinates: [  0.751551636631359,  0.132125502224993,  0.566494344282976 ]
    mass: 121.760000
    reduced_to: 34
  - symbol: Sb # 35
    coordinates: [  0.751551636631359,  0.367874497775007,  0.066494344282976 ]
    mass: 121.760000
    reduced_to: 35
  - symbol: Sb # 36
    coordinates: [  0.248448363368625,  0.867874497775007,  0.433505655717019 ]
    mass: 121.760000
    reduced_to: 36
  - symbol: Sb # 37
    coordinates: [  0.491465042371585,  0.761737594947938,  0.833669607721639 ]
    mass: 121.760000
    reduced_to: 37
  - symbol: Sb # 38
    coordinates: [  0.508534957628399,  0.261737594947938,  0.666330392278355 ]
    mass: 121.760000
    reduced_to: 38
  - symbol: Sb # 39
    coordinates: [  0.508534957628399,  0.238262405052062,  0.166330392278355 ]
    mass: 121.760000
    reduced_to: 39
  - symbol: Sb # 40
    coordinates: [  0.491465042371584,  0.738262405052062,  0.333669607721639 ]
    mass: 121.760000
    reduced_to: 40

supercell:
  lattice:
  - [    41.369058812200215,     0.000000000000000,    -0.000000000000000 ] # a
  - [    -0.000000000000000,    14.075441669137065,    -0.048625016364384 ] # b
  - [     0.000000000000002,     0.034559712213622,    31.979242736023100 ] # c
  points:
  - symbol: Ba # 1
    coordinates: [  0.172518441329298,  0.237460770931758,  0.626450169741221 ]
    mass: 137.327000
    reduced_to: 1
  - symbol: Ba # 2
    coordinates: [  0.172518441329298,  0.737460770931758,  0.626450169741221 ]
    mass: 137.327000
    reduced_to: 1
  - symbol: Ba # 3
    coordinates: [  0.505851774662631,  0.237460770931758,  0.626450169741221 ]
    mass: 137.327000
    reduced_to: 1
  - symbol: Ba # 4
    coordinates: [  0.505851774662631,  0.737460770931758,  0.626450169741221 ]
    mass: 137.327000
    reduced_to: 1
  - symbol: Ba # 5
    coordinates: [  0.839185107995965,  0.237460770931758,  0.626450169741221 ]
    mass: 137.327000
    reduced_to: 1
  - symbol: Ba # 6
    coordinates: [  0.839185107995965,  0.737460770931758,  0.626450169741221 ]
    mass: 137.327000
    reduced_to: 1
  - symbol: Ba # 7
    coordinates: [  0.172518441329298,  0.237460770931758,  0.126450169741221 ]
    mass: 137.327000
    reduced_to: 1
  - symbol: Ba # 8
    coordinates: [  0.172518441329298,  0.737460770931758,  0.126450169741221 ]
    mass: 137.327000
    reduced_to: 1
  - symbol: Ba # 9
    coordinates: [  0.505851774662631,  0.237460770931758,  0.126450169741221 ]
    mass: 137.327000
    reduced_to: 1
  - symbol: Ba # 10
    coordinates: [  0.505851774662631,  0.737460770931758,  0.126450169741221 ]
    mass: 137.327000
    reduced_to: 1
  - symbol: Ba # 11
    coordinates: [  0.839185107995965,  0.237460770931758,  0.126450169741221 ]
    mass: 137.327000
    reduced_to: 1
  - symbol: Ba # 12
    coordinates: [  0.839185107995965,  0.737460770931758,  0.126450169741221 ]
    mass: 137.327000
    reduced_to: 1
  - symbol: Ba # 13
    coordinates: [  0.005851774662632,  0.262539229068234,  0.623549830258782 ]
    mass: 137.327000
    reduced_to: 13
  - symbol: Ba # 14
    coordinates: [  0.005851774662632,  0.762539229068234,  0.623549830258782 ]
    mass: 137.327000
    reduced_to: 13
  - symbol: Ba # 15
    coordinates: [  0.339185107995965,  0.262539229068234,  0.623549830258782 ]
    mass: 137.327000
    reduced_to: 13
  - symbol: Ba # 16
    coordinates: [  0.339185107995965,  0.762539229068234,  0.623549830258782 ]
    mass: 137.327000
    reduced_to: 13
  - symbol: Ba # 17
    coordinates: [  0.672518441329298,  0.262539229068234,  0.623549830258782 ]
    mass: 137.327000
    reduced_to: 13
  - symbol: Ba # 18
    coordinates: [  0.672518441329298,  0.762539229068234,  0.623549830258782 ]
    mass: 137.327000
    reduced_to: 13
  - symbol: Ba # 19
    coordinates: [  0.005851774662632,  0.262539229068234,  0.123549830258782 ]
    mass: 137.327000
    reduced_to: 13
  - symbol: Ba # 20
    coordinates: [  0.005851774662632,  0.762539229068234,  0.123549830258782 ]
    mass: 137.327000
    reduced_to: 13
  - symbol: Ba # 21
    coordinates: [  0.339185107995965,  0.262539229068234,  0.123549830258782 ]
    mass: 137.327000
    reduced_to: 13
  - symbol: Ba # 22
    coordinates: [  0.339185107995965,  0.762539229068234,  0.123549830258782 ]
    mass: 137.327000
    reduced_to: 13
  - symbol: Ba # 23
    coordinates: [  0.672518441329298,  0.262539229068234,  0.123549830258782 ]
    mass: 137.327000
    reduced_to: 13
  - symbol: Ba # 24
    coordinates: [  0.672518441329298,  0.762539229068234,  0.123549830258782 ]
    mass: 137.327000
    reduced_to: 13
  - symbol: Ba # 25
    coordinates: [  0.160814892004035,  0.262539229068234,  0.873549830258781 ]
    mass: 137.327000
    reduced_to: 25
  - symbol: Ba # 26
    coordinates: [  0.160814892004035,  0.762539229068234,  0.873549830258781 ]
    mass: 137.327000
    reduced_to: 25
  - symbol: Ba # 27
    coordinates: [  0.494148225337368,  0.262539229068234,  0.873549830258781 ]
    mass: 137.327000
    reduced_to: 25
  - symbol: Ba # 28
    coordinates: [  0.494148225337368,  0.762539229068234,  0.873549830258781 ]
    mass: 137.327000
    reduced_to: 25
  - symbol: Ba # 29
    coordinates: [  0.827481558670702,  0.262539229068234,  0.873549830258781 ]
    mass: 137.327000
    reduced_to: 25
  - symbol: Ba # 30
    coordinates: [  0.827481558670702,  0.762539229068234,  0.873549830258781 ]
    mass: 137.327000
    reduced_to: 25
  - symbol: Ba # 31
    coordinates: [  0.160814892004035,  0.262539229068234,  0.373549830258781 ]
    mass: 137.327000
    reduced_to: 25
  - symbol: Ba # 32
    coordinates: [  0.160814892004035,  0.762539229068234,  0.373549830258781 ]
    mass: 137.327000
    reduced_to: 25
  - symbol: Ba # 33
    coordinates: [  0.494148225337368,  0.262539229068234,  0.373549830258781 ]
    mass: 137.327000
    reduced_to: 25
  - symbol: Ba # 34
    coordinates: [  0.494148225337368,  0.762539229068234,  0.373549830258781 ]
    mass: 137.327000
    reduced_to: 25
  - symbol: Ba # 35
    coordinates: [  0.827481558670702,  0.262539229068234,  0.373549830258781 ]
    mass: 137.327000
    reduced_to: 25
  - symbol: Ba # 36
    coordinates: [  0.827481558670702,  0.762539229068234,  0.373549830258781 ]
    mass: 137.327000
    reduced_to: 25
  - symbol: Ba # 37
    coordinates: [  0.327481558670702,  0.237460770931758,  0.876450169741221 ]
    mass: 137.327000
    reduced_to: 37
  - symbol: Ba # 38
    coordinates: [  0.327481558670702,  0.737460770931758,  0.876450169741221 ]
    mass: 137.327000
    reduced_to: 37
  - symbol: Ba # 39
    coordinates: [  0.660814892004035,  0.237460770931758,  0.876450169741221 ]
    mass: 137.327000
    reduced_to: 37
  - symbol: Ba # 40
    coordinates: [  0.660814892004035,  0.737460770931758,  0.876450169741221 ]
    mass: 137.327000
    reduced_to: 37
  - symbol: Ba # 41
    coordinates: [  0.994148225337368,  0.237460770931758,  0.876450169741221 ]
    mass: 137.327000
    reduced_to: 37
  - symbol: Ba # 42
    coordinates: [  0.994148225337368,  0.737460770931758,  0.876450169741221 ]
    mass: 137.327000
    reduced_to: 37
  - symbol: Ba # 43
    coordinates: [  0.327481558670702,  0.237460770931758,  0.376450169741221 ]
    mass: 137.327000
    reduced_to: 37
  - symbol: Ba # 44
    coordinates: [  0.327481558670702,  0.737460770931758,  0.376450169741221 ]
    mass: 137.327000
    reduced_to: 37
  - symbol: Ba # 45
    coordinates: [  0.660814892004035,  0.237460770931758,  0.376450169741221 ]
    mass: 137.327000
    reduced_to: 37
  - symbol: Ba # 46
    coordinates: [  0.660814892004035,  0.737460770931758,  0.376450169741221 ]
    mass: 137.327000
    reduced_to: 37
  - symbol: Ba # 47
    coordinates: [  0.994148225337368,  0.237460770931758,  0.376450169741221 ]
    mass: 137.327000
    reduced_to: 37
  - symbol: Ba # 48
    coordinates: [  0.994148225337368,  0.737460770931758,  0.376450169741221 ]
    mass: 137.327000
    reduced_to: 37
  - symbol: Ba # 49
    coordinates: [  0.256147576266080,  0.487576358218562,  0.869693083695596 ]
    mass: 137.327000
    reduced_to: 49
  - symbol: Ba # 50
    coordinates: [  0.256147576266080,  0.987576358218562,  0.869693083695596 ]
    mass: 137.327000
    reduced_to: 49
  - symbol: Ba # 51
    coordinates: [  0.589480909599414,  0.487576358218562,  0.869693083695596 ]
    mass: 137.327000
    reduced_to: 49
  - symbol: Ba # 52
    coordinates: [  0.589480909599414,  0.987576358218562,  0.869693083695596 ]
    mass: 137.327000
    reduced_to: 49
  - symbol: Ba # 53
    coordinates: [  0.922814242932747,  0.487576358218562,  0.869693083695596 ]
    mass: 137.327000
    reduced_to: 49
  - symbol: Ba # 54
    coordinates: [  0.922814242932747,  0.987576358218562,  0.869693083695596 ]
    mass: 137.327000
    reduced_to: 49
  - symbol: Ba # 55
    coordinates: [  0.256147576266080,  0.487576358218562,  0.369693083695596 ]
    mass: 137.327000
    reduced_to: 49
  - symbol: Ba # 56
    coordinates: [  0.256147576266080,  0.987576358218562,  0.369693083695596 ]
    mass: 137.327000
    reduced_to: 49
  - symbol: Ba # 57
    coordinates: [  0.589480909599414,  0.487576358218562,  0.369693083695596 ]
    mass: 137.327000
    reduced_to: 49
  - symbol: Ba # 58
    coordinates: [  0.589480909599414,  0.987576358218562,  0.369693083695596 ]
    mass: 137.327000
    reduced_to: 49
  - symbol: Ba # 59
    coordinates: [  0.922814242932747,  0.487576358218562,  0.369693083695596 ]
    mass: 137.327000
    reduced_to: 49
  - symbol: Ba # 60
    coordinates: [  0.922814242932747,  0.987576358218562,  0.369693083695596 ]
    mass: 137.327000
    reduced_to: 49
  - symbol: Ba # 61
    coordinates: [  0.089480909599414,  0.012423641781430,  0.880306916304407 ]
    mass: 137.327000
    reduced_to: 61
  - symbol: Ba # 62
    coordinates: [  0.089480909599414,  0.512423641781430,  0.880306916304407 ]
    mass: 137.327000
    reduced_to: 61
  - symbol: Ba # 63
    coordinates: [  0.422814242932747,  0.012423641781430,  0.880306916304407 ]
    mass: 137.327000
    reduced_to: 61
  - symbol: Ba # 64
    coordinates: [  0.422814242932747,  0.512423641781430,  0.880306916304407 ]
    mass: 137.327000
    reduced_to: 61
  - symbol: Ba # 65
    coordinates: [  0.756147576266081,  0.012423641781430,  0.880306916304407 ]
    mass: 137.327000
    reduced_to: 61
  - symbol: Ba # 66
    coordinates: [  0.756147576266081,  0.512423641781430,  0.880306916304407 ]
    mass: 137.327000
    reduced_to: 61
  - symbol: Ba # 67
    coordinates: [  0.089480909599414,  0.012423641781430,  0.380306916304407 ]
    mass: 137.327000
    reduced_to: 61
  - symbol: Ba # 68
    coordinates: [  0.089480909599414,  0.512423641781430,  0.380306916304407 ]
    mass: 137.327000
    reduced_to: 61
  - symbol: Ba # 69
    coordinates: [  0.422814242932747,  0.012423641781430,  0.380306916304407 ]
    mass: 137.327000
    reduced_to: 61
  - symbol: Ba # 70
    coordinates: [  0.422814242932747,  0.512423641781430,  0.380306916304407 ]
    mass: 137.327000
    reduced_to: 61
  - symbol: Ba # 71
    coordinates: [  0.756147576266081,  0.012423641781430,  0.380306916304407 ]
    mass: 137.327000
    reduced_to: 61
  - symbol: Ba # 72
    coordinates: [  0.756147576266081,  0.512423641781430,  0.380306916304407 ]
    mass: 137.327000
    reduced_to: 61
  - symbol: Ba # 73
    coordinates: [  0.077185757067253,  0.012423641781430,  0.630306916304407 ]
    mass: 137.327000
    reduced_to: 73
  - symbol: Ba # 74
    coordinates: [  0.077185757067253,  0.512423641781430,  0.630306916304407 ]
    mass: 137.327000
    reduced_to: 73
  - symbol: Ba # 75
    coordinates: [  0.410519090400586,  0.012423641781430,  0.630306916304407 ]
    mass: 137.327000
    reduced_to: 73
  - symbol: Ba # 76
    coordinates: [  0.410519090400586,  0.512423641781430,  0.630306916304407 ]
    mass: 137.327000
    reduced_to: 73
  - symbol: Ba # 77
    coordinates: [  0.743852423733920,  0.012423641781430,  0.630306916304407 ]
    mass: 137.327000
    reduced_to: 73
  - symbol: Ba # 78
    coordinates: [  0.743852423733920,  0.512423641781430,  0.630306916304407 ]
    mass: 137.327000
    reduced_to: 73
  - symbol: Ba # 79
    coordinates: [  0.077185757067253,  0.012423641781430,  0.130306916304407 ]
    mass: 137.327000
    reduced_to: 73
  - symbol: Ba # 80
    coordinates: [  0.077185757067253,  0.512423641781430,  0.130306916304407 ]
    mass: 137.327000
    reduced_to: 73
  - symbol: Ba # 81
    coordinates: [  0.410519090400586,  0.012423641781430,  0.130306916304407 ]
    mass: 137.327000
    reduced_to: 73
  - symbol: Ba # 82
    coordinates: [  0.410519090400586,  0.512423641781430,  0.130306916304407 ]
    mass: 137.327000
    reduced_to: 73
  - symbol: Ba # 83
    coordinates: [  0.743852423733920,  0.012423641781430,  0.130306916304407 ]
    mass: 137.327000
    reduced_to: 73
  - symbol: Ba # 84
    coordinates: [  0.743852423733920,  0.512423641781430,  0.130306916304407 ]
    mass: 137.327000
    reduced_to: 73
  - symbol: Ba # 85
    coordinates: [  0.243852423733920,  0.487576358218562,  0.619693083695596 ]
    mass: 137.327000
    reduced_to: 85
  - symbol: Ba # 86
    coordinates: [  0.243852423733920,  0.987576358218562,  0.619693083695596 ]
    mass: 137.327000
    reduced_to: 85
  - symbol: Ba # 87
    coordinates: [  0.577185757067253,  0.487576358218562,  0.619693083695596 ]
    mass: 137.327000
    reduced_to: 85
  - symbol: Ba # 88
    coordinates: [  0.577185757067253,  0.987576358218562,  0.619693083695596 ]
    mass: 137.327000
    reduced_to: 85
  - symbol: Ba # 89
    coordinates: [  0.910519090400586,  0.487576358218562,  0.619693083695596 ]
    mass: 137.327000
    reduced_to: 85
  - symbol: Ba # 90
    coordinates: [  0.910519090400586,  0.987576358218562,  0.619693083695596 ]
    mass: 137.327000
    reduced_to: 85
  - symbol: Ba # 91
    coordinates: [  0.243852423733920,  0.487576358218562,  0.119693083695596 ]
    mass: 137.327000
    reduced_to: 85
  - symbol: Ba # 92
    coordinates: [  0.243852423733920,  0.987576358218562,  0.119693083695596 ]
    mass: 137.327000
    reduced_to: 85
  - symbol: Ba # 93
    coordinates: [  0.577185757067253,  0.487576358218562,  0.119693083695596 ]
    mass: 137.327000
    reduced_to: 85
  - symbol: Ba # 94
    coordinates: [  0.577185757067253,  0.987576358218562,  0.119693083695596 ]
    mass: 137.327000
    reduced_to: 85
  - symbol: Ba # 95
    coordinates: [  0.910519090400586,  0.487576358218562,  0.119693083695596 ]
    mass: 137.327000
    reduced_to: 85
  - symbol: Ba # 96
    coordinates: [  0.910519090400586,  0.987576358218562,  0.119693083695596 ]
    mass: 137.327000
    reduced_to: 85
  - symbol: Ba # 97
    coordinates: [  0.290938744832854,  0.371492651520517,  0.747109941546645 ]
    mass: 137.327000
    reduced_to: 97
  - symbol: Ba # 98
    coordinates: [  0.290938744832854,  0.871492651520517,  0.747109941546645 ]
    mass: 137.327000
    reduced_to: 97
  - symbol: Ba # 99
    coordinates: [  0.624272078166188,  0.371492651520517,  0.747109941546645 ]
    mass: 137.327000
    reduced_to: 97
  - symbol: Ba # 100
    coordinates: [  0.624272078166188,  0.871492651520517,  0.747109941546645 ]
    mass: 137.327000
    reduced_to: 97
  - symbol: Ba # 101
    coordinates: [  0.957605411499521,  0.371492651520517,  0.747109941546645 ]
    mass: 137.327000
    reduced_to: 97
  - symbol: Ba # 102
    coordinates: [  0.957605411499521,  0.871492651520517,  0.747109941546645 ]
    mass: 137.327000
    reduced_to: 97
  - symbol: Ba # 103
    coordinates: [  0.290938744832854,  0.371492651520517,  0.247109941546645 ]
    mass: 137.327000
    reduced_to: 97
  - symbol: Ba # 104
    coordinates: [  0.290938744832854,  0.871492651520517,  0.247109941546645 ]
    mass: 137.327000
    reduced_to: 97
  - symbol: Ba # 105
    coordinates: [  0.624272078166188,  0.371492651520517,  0.247109941546645 ]
    mass: 137.327000
    reduced_to: 97
  - symbol: Ba # 106
    coordinates: [  0.624272078166188,  0.871492651520517,  0.247109941546645 ]
    mass: 137.327000
    reduced_to: 97
  - symbol: Ba # 107
    coordinates: [  0.957605411499521,  0.371492651520517,  0.247109941546645 ]
    mass: 137.327000
    reduced_to: 97
  - symbol: Ba # 108
    coordinates: [  0.957605411499521,  0.871492651520517,  0.247109941546645 ]
    mass: 137.327000
    reduced_to: 97
  - symbol: Ba # 109
    coordinates: [  0.124272078166188,  0.128507348479475,  0.502890058453357 ]
    mass: 137.327000
    reduced_to: 109
  - symbol: Ba # 110
    coordinates: [  0.124272078166188,  0.628507348479475,  0.502890058453357 ]
    mass: 137.327000
    reduced_to: 109
  - symbol: Ba # 111
    coordinates: [  0.457605411499521,  0.128507348479475,  0.502890058453357 ]
    mass: 137.327000
    reduced_to: 109
  - symbol: Ba # 112
    coordinates: [  0.457605411499521,  0.628507348479475,  0.502890058453357 ]
    mass: 137.327000
    reduced_to: 109
  - symbol: Ba # 113
    coordinates: [  0.790938744832854,  0.128507348479475,  0.502890058453357 ]
    mass: 137.327000
    reduced_to: 109
  - symbol: Ba # 114
    coordinates: [  0.790938744832854,  0.628507348479475,  0.502890058453357 ]
    mass: 137.327000
    reduced_to: 109
  - symbol: Ba # 115
    coordinates: [  0.124272078166188,  0.128507348479475,  0.002890058453357 ]
    mass: 137.327000
    reduced_to: 109
  - symbol: Ba # 116
    coordinates: [  0.124272078166188,  0.628507348479475,  0.002890058453357 ]
    mass: 137.327000
    reduced_to: 109
  - symbol: Ba # 117
    coordinates: [  0.457605411499521,  0.128507348479475,  0.002890058453357 ]
    mass: 137.327000
    reduced_to: 109
  - symbol: Ba # 118
    coordinates: [  0.457605411499521,  0.628507348479475,  0.002890058453357 ]
    mass: 137.327000
    reduced_to: 109
  - symbol: Ba # 119
    coordinates: [  0.790938744832854,  0.128507348479475,  0.002890058453357 ]
    mass: 137.327000
    reduced_to: 109
  - symbol: Ba # 120
    coordinates: [  0.790938744832854,  0.628507348479475,  0.002890058453357 ]
    mass: 137.327000
    reduced_to: 109
  - symbol: Ba # 121
    coordinates: [  0.042394588500479,  0.128507348479475,  0.752890058453357 ]
    mass: 137.327000
    reduced_to: 121
  - symbol: Ba # 122
    coordinates: [  0.042394588500479,  0.628507348479475,  0.752890058453357 ]
    mass: 137.327000
    reduced_to: 121
  - symbol: Ba # 123
    coordinates: [  0.375727921833812,  0.128507348479475,  0.752890058453357 ]
    mass: 137.327000
    reduced_to: 121
  - symbol: Ba # 124
    coordinates: [  0.375727921833812,  0.628507348479475,  0.752890058453357 ]
    mass: 137.327000
    reduced_to: 121
  - symbol: Ba # 125
    coordinates: [  0.709061255167146,  0.128507348479475,  0.752890058453357 ]
    mass: 137.327000
    reduced_to: 121
  - symbol: Ba # 126
    coordinates: [  0.709061255167146,  0.628507348479475,  0.752890058453357 ]
    mass: 137.327000
    reduced_to: 121
  - symbol: Ba # 127
    coordinates: [  0.042394588500479,  0.128507348479475,  0.252890058453357 ]
    mass: 137.327000
    reduced_to: 121
  - symbol: Ba # 128
    coordinates: [  0.042394588500479,  0.628507348479475,  0.252890058453357 ]
    mass: 137.327000
    reduced_to: 121
  - symbol: Ba # 129