phonopy:
  version: "2.27.0"
  frequency_unit_conversion_factor: 15.633302
  symmetry_tolerance: 1.00000e-03

space_group:
  type: "P2_1/c"
  number: 14
  Hall_symbol: "-P 2ybc"

primitive_matrix:
- [  1.000000000000000,  0.000000000000000, -0.000000000000000 ]
- [  0.000000000000000, -1.000000000000000, -0.000000000000000 ]
- [ -0.000000000000000, -0.000000000000000, -1.000000000000000 ]

supercell_matrix:
- [   0,   3,   0 ]
- [   2,   0,   0 ]
- [   0,   0,  -2 ]

primitive_cell:
  lattice:
  - [    -0.000000000000000,     7.037720834568535,    -0.024312508182220 ] # a
  - [   -13.789686270733563,    -0.000000000000000,     0.000000000000000 ] # b
  - [     0.000000000000001,     0.017279856106823,    15.989621368011615 ] # c
  points:
  - symbol: Ba # 1
    coordinates: [  0.474921541863515,  0.482444676012104,  0.252900339482440 ]
    mass: 137.327000
  - symbol: Ba # 2
    coordinates: [  0.525078458136469,  0.982444676012104,  0.247099660517561 ]
    mass: 137.327000
  - symbol: Ba # 3
    coordinates: [  0.525078458136470,  0.517555323987896,  0.747099660517560 ]
    mass: 137.327000
  - symbol: Ba # 4
    coordinates: [  0.474921541863515,  0.017555323987896,  0.752900339482440 ]
    mass: 137.327000
  - symbol: Ba # 5
    coordinates: [  0.975152716437122,  0.231557271201761,  0.739386167391188 ]
    mass: 137.327000
  - symbol: Ba # 6
    coordinates: [  0.024847283562863,  0.731557271201761,  0.760613832608813 ]
    mass: 137.327000
  - symbol: Ba # 7
    coordinates: [  0.024847283562863,  0.768442728798239,  0.260613832608813 ]
    mass: 137.327000
  - symbol: Ba # 8
    coordinates: [  0.975152716437121,  0.268442728798239,  0.239386167391188 ]
    mass: 137.327000
  - symbol: Ba # 9
    coordinates: [  0.742985303041033,  0.127183765501436,  0.494219883093287 ]
    mass: 137.327000
  - symbol: Ba # 10
    coordinates: [  0.257014696958951,  0.627183765501436,  0.005780116906714 ]
    mass: 137.327000
  - symbol: Ba # 11
    coordinates: [  0.257014696958951,  0.872816234498564,  0.505780116906714 ]
    mass: 137.327000
  - symbol: Ba # 12
    coordinates: [  0.742985303041033,  0.372816234498564,  0.994219883093287 ]
    mass: 137.327000
  - symbol: Ba # 13
    coordinates: [  0.245417927587181,  0.379580773226418,  0.497464035642302 ]
    mass: 137.327000
  - symbol: Ba # 14
    coordinates: [  0.754582072412802,  0.879580773226418,  0.002535964357699 ]
    mass: 137.327000
  - symbol: Ba # 15
    coordinates: [  0.754582072412803,  0.620419226773582,  0.502535964357699 ]
    mass: 137.327000
  - symbol: Ba # 16
    coordinates: [  0.245417927587181,  0.120419226773582,  0.997464035642302 ]
    mass: 137.327000
  - symbol: Sb # 17
    coordinates: [  0.748831605041573,  0.380622739094706,  0.417067321236478 ]
    mass: 121.760000
  - symbol: Sb # 18
    coordinates: [  0.251168394958412,  0.880622739094706,  0.082932678763523 ]
    mass: 121.760000
  - symbol: Sb # 19
    coordinates: [  0.251168394958413,  0.619377260905295,  0.582932678763523 ]
    mass: 121.760000
  - symbol: Sb # 20
    coordinates: [  0.748831605041572,  0.119377260905295,  0.917067321236478 ]
    mass: 121.760000
  - symbol: Sb # 21
    coordinates: [  0.002812388486386,  0.014073214957675,  0.171569061204042 ]
    mass: 121.760000
  - symbol: Sb # 22
    coordinates: [  0.997187611513598,  0.514073214957675,  0.328430938795959 ]
    mass: 121.760000
  - symbol: Sb # 23
    coordinates: [  0.997187611513597,  0.985926785042325,  0.828430938795959 ]
    mass: 121.760000
  - symbol: Sb # 24
    coordinates: [  0.002812388486387,  0.485926785042326,  0.671569061204042 ]
    mass: 121.760000
  - symbol: Sb # 25
    coordinates: [  0.096003179089337,  0.455551257356982,  0.848297775165400 ]
    mass: 121.760000
  - symbol: Sb # 26
    coordinates: [  0.903996820910647,  0.955551257356982,  0.651702224834600 ]
    mass: 121.760000
  - symbol: Sb # 27
    coordinates: [  0.903996820910647,  0.544448742643018,  0.151702224834600 ]
    mass: 121.760000
  - symbol: Sb # 28
    coordinates: [  0.096003179089338,  0.044448742643018,  0.348297775165400 ]
    mass: 121.760000
  - symbol: Sb # 29
    coordinates: [  0.397949779567668,  0.205688636188750,  0.343811417135344 ]
    mass: 121.760000
  - symbol: Sb # 30
    coordinates: [  0.602050220432316,  0.705688636188750,  0.156188582864656 ]
    mass: 121.760000
  - symbol: Sb # 31
    coordinates: [  0.602050220432317,  0.794311363811250,  0.656188582864656 ]
    mass: 121.760000
  - symbol: Sb # 32
    coordinates: [  0.397949779567667,  0.294311363811250,  0.843811417135345 ]
    mass: 121.760000
  - symbol: Sb # 33
    coordinates: [  0.248448363368622,  0.367874497775007,  0.066494344282977 ]
    mass: 121.760000
  - symbol: Sb # 34
    coordinates: [  0.751551636631362,  0.867874497775007,  0.433505655717024 ]
    mass: 121.760000
  - symbol: Sb # 35
    coordinates: [  0.751551636631362,  0.632125502224993,  0.933505655717024 ]
    mass: 121.760000
  - symbol: Sb # 36
    coordinates: [  0.248448363368622,  0.132125502224994,  0.566494344282976 ]
    mass: 121.760000
  - symbol: Sb # 37
    coordinates: [  0.491465042371576,  0.238262405052063,  0.166330392278359 ]
    mass: 121.760000
  - symbol: Sb # 38
    coordinates: [  0.508534957628409,  0.738262405052063,  0.333669607721642 ]
    mass: 121.760000
  - symbol: Sb # 39
    coordinates: [  0.508534957628409,  0.761737594947936,  0.833669607721641 ]
    mass: 121.760000
  - symbol: Sb # 40
    coordinates: [  0.491465042371576,  0.261737594947937,  0.666330392278359 ]
    mass: 121.760000
  reciprocal_lattice: # without 2pi
  - [    -0.000000000000000,     0.142090925480274,    -0.000153556528318 ] # a*
  - [    -0.072517965990448,    -0.000000000000000,     0.000000000000000 ] # b*
  - [     0.000000000000000,     0.000216051819418,     0.062540334360651 ] # c*

unit_cell:
  lattice:
  - [    -0.000000000000000,     7.037720834568535,    -0.024312508182220 ] # a
  - [    13.789686270733563,     0.000000000000000,    -0.000000000000000 ] # b
  - [    -0.000000000000001,    -0.017279856106823,   -15.989621368011615 ] # c
  points:
  - symbol: Ba # 1
    coordinates: [  0.474921541863515,  0.517555323987896,  0.747099660517560 ]
    mass: 137.327000
    reduced_to: 1
  - symbol: Ba # 2
    coordinates: [  0.525078458136469,  0.017555323987896,  0.752900339482439 ]
    mass: 137.327000
    reduced_to: 2
  - symbol: Ba # 3
    coordinates: [  0.525078458136470,  0.482444676012104,  0.252900339482440 ]
    mass: 137.327000
    reduced_to: 3
  - symbol: Ba # 4
    coordinates: [  0.474921541863515,  0.982444676012104,  0.247099660517560 ]
    mass: 137.327000
    reduced_to: 4
  - symbol: Ba # 5
    coordinates: [  0.975152716437122,  0.768442728798239,  0.260613832608812 ]
    mass: 137.327000
    reduced_to: 5
  - symbol: Ba # 6
    coordinates: [  0.024847283562863,  0.268442728798239,  0.239386167391187 ]
    mass: 137.327000
    reduced_to: 6
  - symbol: Ba # 7
    coordinates: [  0.024847283562862,  0.231557271201761,  0.739386167391187 ]
    mass: 137.327000
    reduced_to: 7
  - symbol: Ba # 8
    coordinates: [  0.975152716437121,  0.731557271201761,  0.760613832608812 ]
    mass: 137.327000
    reduced_to: 8
  - symbol: Ba # 9
    coordinates: [  0.742985303041033,  0.872816234498564,  0.505780116906713 ]
    mass: 137.327000
    reduced_to: 9
  - symbol: Ba # 10
    coordinates: [  0.257014696958951,  0.372816234498564,  0.994219883093286 ]
    mass: 137.327000
    reduced_to: 10
  - symbol: Ba # 11
    coordinates: [  0.257014696958951,  0.127183765501436,  0.494219883093286 ]
    mass: 137.327000
    reduced_to: 11
  - symbol: Ba # 12
    coordinates: [  0.742985303041033,  0.627183765501436,  0.005780116906713 ]
    mass: 137.327000
    reduced_to: 12
  - symbol: Ba # 13
    coordinates: [  0.245417927587181,  0.620419226773582,  0.502535964357698 ]
    mass: 137.327000
    reduced_to: 13
  - symbol: Ba # 14
    coordinates: [  0.754582072412802,  0.120419226773582,  0.997464035642301 ]
    mass: 137.327000
    reduced_to: 14
  - symbol: Ba # 15
    coordinates: [  0.754582072412803,  0.379580773226418,  0.497464035642301 ]
    mass: 137.327000
    reduced_to: 15
  - symbol: Ba # 16
    coordinates: [  0.245417927587181,  0.879580773226418,  0.002535964357698 ]
    mass: 137.327000
    reduced_to: 16
  - symbol: Sb # 17
    coordinates: [  0.748831605041573,  0.619377260905294,  0.582932678763522 ]
    mass: 121.760000
    reduced_to: 17
  - symbol: Sb # 18
    coordinates: [  0.251168394958412,  0.119377260905294,  0.917067321236477 ]
    mass: 121.760000
    reduced_to: 18
  - symbol: Sb # 19
    coordinates: [  0.251168394958413,  0.380622739094705,  0.417067321236478 ]
    mass: 121.760000
    reduced_to: 19
  - symbol: Sb # 20
    coordinates: [  0.748831605041572,  0.880622739094705,  0.082932678763522 ]
    mass: 121.760000
    reduced_to: 20
  - symbol: Sb # 21
    coordinates: [  1.002812388486386,  0.985926785042325,  0.828430938795958 ]
    mass: 121.760000
    reduced_to: 21
  - symbol: Sb # 22
    coordinates: [ -0.002812388486402,  0.485926785042325,  0.671569061204041 ]
    mass: 121.760000
    reduced_to: 22
  - symbol: Sb # 23
    coordinates: [ -0.002812388486403,  0.014073214957675,  0.171569061204041 ]
    mass: 121.760000
    reduced_to: 23
  - symbol: Sb # 24
    coordinates: [  1.002812388486387,  0.514073214957674,  0.328430938795958 ]
    mass: 121.760000
    reduced_to: 24
  - symbol: Sb # 25
    coordinates: [  0.096003179089337,  0.544448742643018,  0.151702224834600 ]
    mass: 121.760000
    reduced_to: 25
  - symbol: Sb # 26
    coordinates: [  0.903996820910647,  0.044448742643018,  0.348297775165399 ]
    mass: 121.760000
    reduced_to: 26
  - symbol: Sb # 27
    coordinates: [  0.903996820910647,  0.455551257356982,  0.848297775165400 ]
    mass: 121.760000
    reduced_to: 27
  - symbol: Sb # 28
    coordinates: [  0.096003179089338,  0.955551257356982,  0.651702224834600 ]
    mass: 121.760000
    reduced_to: 28
  - symbol: Sb # 29
    coordinates: [  0.397949779567668,  0.794311363811250,  0.656188582864656 ]
    mass: 121.760000
    reduced_to: 29
  - symbol: Sb # 30
    coordinates: [  0.602050220432316,  0.294311363811250,  0.843811417135344 ]
    mass: 121.760000
    reduced_to: 30
  - symbol: Sb # 31
    coordinates: [  0.602050220432317,  0.205688636188750,  0.343811417135344 ]
    mass: 121.760000
    reduced_to: 31
  - symbol: Sb # 32
    coordinates: [  0.397949779567667,  0.705688636188750,  0.156188582864655 ]
    mass: 121.760000
    reduced_to: 32
  - symbol: Sb # 33
    coordinates: [  0.248448363368622,  0.632125502224993,  0.933505655717023 ]
    mass: 121.760000
    reduced_to: 33
  - symbol: Sb # 34
    coordinates: [  0.751551636631362,  0.132125502224993,  0.566494344282975 ]
    mass: 121.760000
    reduced_to: 34
  - symbol: Sb # 35
    coordinates: [  0.751551636631362,  0.367874497775007,  0.066494344282976 ]
    mass: 121.760000
    reduced_to: 35
  - symbol: Sb # 36
    coordinates: [  0.248448363368622,  0.867874497775006,  0.433505655717024 ]
    mass: 121.760000
    reduced_to: 36
  - symbol: Sb # 37
    coordinates: [  0.491465042371576,  0.761737594947937,  0.833669607721641 ]
    mass: 121.760000
    reduced_to: 37
  - symbol: Sb # 38
    coordinates: [  0.508534957628408,  0.261737594947937,  0.666330392278358 ]
    mass: 121.760000
    reduced_to: 38
  - symbol: Sb # 39
    coordinates: [  0.508534957628409,  0.238262405052064,  0.166330392278359 ]
    mass: 121.760000
    reduced_to: 39
  - symbol: Sb # 40
    coordinates: [  0.491465042371575,  0.738262405052063,  0.333669607721641 ]
    mass: 121.760000
    reduced_to: 40

supercell:
  lattice:
  - [    27.579372541467126,     0.000000000000001,    -0.000000000000000 ] # a
  - [    -0.000000000000000,    21.113162503705606,    -0.072937524546660 ] # b
  - [     0.000000000000003,     0.034559712213647,    31.979242736023231 ] # c
  points:
  - symbol: Ba # 1
    coordinates: [  0.258777661993948,  0.158307180621172,  0.626450169741220 ]
    mass: 137.327000
    reduced_to: 1
  - symbol: Ba # 2
    coordinates: [  0.258777661993948,  0.491640513954505,  0.626450169741220 ]
    mass: 137.327000
    reduced_to: 1
  - symbol: Ba # 3
    coordinates: [  0.258777661993948,  0.824973847287838,  0.626450169741220 ]
    mass: 137.327000
    reduced_to: 1
  - symbol: Ba # 4
    coordinates: [  0.758777661993948,  0.158307180621172,  0.626450169741220 ]
    mass: 137.327000
    reduced_to: 1
  - symbol: Ba # 5
    coordinates: [  0.758777661993948,  0.491640513954505,  0.626450169741220 ]
    mass: 137.327000
    reduced_to: 1
  - symbol: Ba # 6
    coordinates: [  0.758777661993948,  0.824973847287838,  0.626450169741220 ]
    mass: 137.327000
    reduced_to: 1
  - symbol: Ba # 7
    coordinates: [  0.258777661993948,  0.158307180621172,  0.126450169741220 ]
    mass: 137.327000
    reduced_to: 1
  - symbol: Ba # 8
    coordinates: [  0.258777661993948,  0.491640513954505,  0.126450169741220 ]
    mass: 137.327000
    reduced_to: 1
  - symbol: Ba # 9
    coordinates: [  0.258777661993948,  0.824973847287838,  0.126450169741220 ]
    mass: 137.327000
    reduced_to: 1
  - symbol: Ba # 10
    coordinates: [  0.758777661993948,  0.158307180621172,  0.126450169741220 ]
    mass: 137.327000
    reduced_to: 1
  - symbol: Ba # 11
    coordinates: [  0.758777661993948,  0.491640513954505,  0.126450169741220 ]
    mass: 137.327000
    reduced_to: 1
  - symbol: Ba # 12
    coordinates: [  0.758777661993948,  0.824973847287838,  0.126450169741220 ]
    mass: 137.327000
    reduced_to: 1
  - symbol: Ba # 13
    coordinates: [  0.008777661993948,  0.175026152712156,  0.623549830258781 ]
    mass: 137.327000
    reduced_to: 13
  - symbol: Ba # 14
    coordinates: [  0.008777661993948,  0.508359486045490,  0.623549830258781 ]
    mass: 137.327000
    reduced_to: 13
  - symbol: Ba # 15
    coordinates: [  0.008777661993948,  0.841692819378823,  0.623549830258781 ]
    mass: 137.327000
    reduced_to: 13
  - symbol: Ba # 16
    coordinates: [  0.508777661993948,  0.175026152712156,  0.623549830258781 ]
    mass: 137.327000
    reduced_to: 13
  - symbol: Ba # 17
    coordinates: [  0.508777661993948,  0.508359486045490,  0.623549830258781 ]
    mass: 137.327000
    reduced_to: 13
  - symbol: Ba # 18
    coordinates: [  0.508777661993948,  0.841692819378823,  0.623549830258781 ]
    mass: 137.327000
    reduced_to: 13
  - symbol: Ba # 19
    coordinates: [  0.008777661993948,  0.175026152712156,  0.123549830258781 ]
    mass: 137.327000
    reduced_to: 13
  - symbol: Ba # 20
    coordinates: [  0.008777661993948,  0.508359486045490,  0.123549830258781 ]
    mass: 137.327000
    reduced_to: 13
  - symbol: Ba # 21
    coordinates: [  0.008777661993948,  0.841692819378823,  0.123549830258781 ]
    mass: 137.327000
    reduced_to: 13
  - symbol: Ba # 22
    coordinates: [  0.508777661993948,  0.175026152712156,  0.123549830258781 ]
    mass: 137.327000
    reduced_to: 13
  - symbol: Ba # 23
    coordinates: [  0.508777661993948,  0.508359486045490,  0.123549830258781 ]
    mass: 137.327000
    reduced_to: 13
  - symbol: Ba # 24
    coordinates: [  0.508777661993948,  0.841692819378823,  0.123549830258781 ]
    mass: 137.327000
    reduced_to: 13
  - symbol: Ba # 25
    coordinates: [  0.241222338006052,  0.175026152712157,  0.873549830258780 ]
    mass: 137.327000
    reduced_to: 25
  - symbol: Ba # 26
    coordinates: [  0.241222338006052,  0.508359486045490,  0.873549830258780 ]
    mass: 137.327000
    reduced_to: 25
  - symbol: Ba # 27
    coordinates: [  0.241222338006052,  0.841692819378823,  0.873549830258780 ]
    mass: 137.327000
    reduced_to: 25
  - symbol: Ba # 28
    coordinates: [  0.741222338006052,  0.175026152712157,  0.873549830258780 ]
    mass: 137.327000
    reduced_to: 25
  - symbol: Ba # 29
    coordinates: [  0.741222338006052,  0.508359486045490,  0.873549830258780 ]
    mass: 137.327000
    reduced_to: 25
  - symbol: Ba # 30
    coordinates: [  0.741222338006052,  0.841692819378823,  0.873549830258780 ]
    mass: 137.327000
    reduced_to: 25
  - symbol: Ba # 31
    coordinates: [  0.241222338006052,  0.175026152712157,  0.373549830258780 ]
    mass: 137.327000
    reduced_to: 25
  - symbol: Ba # 32
    coordinates: [  0.241222338006052,  0.508359486045490,  0.373549830258780 ]
    mass: 137.327000
    reduced_to: 25
  - symbol: Ba # 33
    coordinates: [  0.241222338006052,  0.841692819378823,  0.373549830258780 ]
    mass: 137.327000
    reduced_to: 25
  - symbol: Ba # 34
    coordinates: [  0.741222338006052,  0.175026152712157,  0.373549830258780 ]
    mass: 137.327000
    reduced_to: 25
  - symbol: Ba # 35
    coordinates: [  0.741222338006052,  0.508359486045490,  0.373549830258780 ]
    mass: 137.327000
    reduced_to: 25
  - symbol: Ba # 36
    coordinates: [  0.741222338006052,  0.841692819378823,  0.373549830258780 ]
    mass: 137.327000
    reduced_to: 25
  - symbol: Ba # 37
    coordinates: [  0.491222338006052,  0.158307180621172,  0.876450169741220 ]
    mass: 137.327000
    reduced_to: 37
  - symbol: Ba # 38
    coordinates: [  0.491222338006052,  0.491640513954505,  0.876450169741220 ]
    mass: 137.327000
    reduced_to: 37
  - symbol: Ba # 39
    coordinates: [  0.491222338006052,  0.824973847287838,  0.876450169741220 ]
    mass: 137.327000
    reduced_to: 37
  - symbol: Ba # 40
    coordinates: [  0.991222338006052,  0.158307180621172,  0.876450169741220 ]
    mass: 137.327000
    reduced_to: 37
  - symbol: Ba # 41
    coordinates: [  0.991222338006052,  0.491640513954505,  0.876450169741220 ]
    mass: 137.327000
    reduced_to: 37
  - symbol: Ba # 42
    coordinates: [  0.991222338006052,  0.824973847287838,  0.876450169741220 ]
    mass: 137.327000
    reduced_to: 37
  - symbol: Ba # 43
    coordinates: [  0.491222338006052,  0.158307180621172,  0.376450169741220 ]
    mass: 137.327000
    reduced_to: 37
  - symbol: Ba # 44
    coordinates: [  0.491222338006052,  0.491640513954505,  0.376450169741220 ]
    mass: 137.327000
    reduced_to: 37
  - symbol: Ba # 45
    coordinates: [  0.491222338006052,  0.824973847287838,  0.376450169741220 ]
    mass: 137.327000
    reduced_to: 37
  - symbol: Ba # 46
    coordinates: [  0.991222338006052,  0.158307180621172,  0.376450169741220 ]
    mass: 137.327000
    reduced_to: 37
  - symbol: Ba # 47
    coordinates: [  0.991222338006052,  0.491640513954505,  0.376450169741220 ]
    mass: 137.327000
    reduced_to: 37
  - symbol: Ba # 48
    coordinates: [  0.991222338006052,  0.824973847287838,  0.376450169741220 ]
    mass: 137.327000
    reduced_to: 37
  - symbol: Ba # 49
    coordinates: [  0.384221364399119,  0.325050905479041,  0.869693083695594 ]
    mass: 137.327000
    reduced_to: 49
  - symbol: Ba # 50
    coordinates: [  0.384221364399119,  0.658384238812374,  0.869693083695594 ]
    mass: 137.327000
    reduced_to: 49
  - symbol: Ba # 51
    coordinates: [  0.384221364399119,  0.991717572145707,  0.869693083695594 ]
    mass: 137.327000
    reduced_to: 49
  - symbol: Ba # 52
    coordinates: [  0.884221364399119,  0.325050905479041,  0.869693083695594 ]
    mass: 137.327000
    reduced_to: 49
  - symbol: Ba # 53
    coordinates: [  0.884221364399119,  0.658384238812374,  0.869693083695594 ]
    mass: 137.327000
    reduced_to: 49
  - symbol: Ba # 54
    coordinates: [  0.884221364399119,  0.991717572145707,  0.869693083695594 ]
    mass: 137.327000
    reduced_to: 49
  - symbol: Ba # 55
    coordinates: [  0.384221364399119,  0.325050905479041,  0.369693083695594 ]
    mass: 137.327000
    reduced_to: 49
  - symbol: Ba # 56
    coordinates: [  0.384221364399119,  0.658384238812374,  0.369693083695594 ]
    mass: 137.327000
    reduced_to: 49
  - symbol: Ba # 57
    coordinates: [  0.384221364399119,  0.991717572145707,  0.369693083695594 ]
    mass: 137.327000
    reduced_to: 49
  - symbol: Ba # 58
    coordinates: [  0.884221364399119,  0.325050905479041,  0.369693083695594 ]
    mass: 137.327000
    reduced_to: 49
  - symbol: Ba # 59
    coordinates: [  0.884221364399119,  0.658384238812374,  0.369693083695594 ]
    mass: 137.327000
    reduced_to: 49
  - symbol: Ba # 60
    coordinates: [  0.884221364399119,  0.991717572145707,  0.369693083695594 ]
    mass: 137.327000
    reduced_to: 49
  - symbol: Ba # 61
    coordinates: [  0.134221364399119,  0.008282427854288,  0.880306916304406 ]
    mass: 137.327000
    reduced_to: 61
  - symbol: Ba # 62
    coordinates: [  0.134221364399119,  0.341615761187621,  0.880306916304406 ]
    mass: 137.327000
    reduced_to: 61
  - symbol: Ba # 63
    coordinates: [  0.134221364399119,  0.674949094520954,  0.880306916304406 ]
    mass: 137.327000
    reduced_to: 61
  - symbol: Ba # 64
    coordinates: [  0.634221364399119,  0.008282427854288,  0.880306916304406 ]
    mass: 137.327000
    reduced_to: 61
  - symbol: Ba # 65
    coordinates: [  0.634221364399119,  0.341615761187621,  0.880306916304406 ]
    mass: 137.327000
    reduced_to: 61
  - symbol: Ba # 66
    coordinates: [  0.634221364399119,  0.674949094520954,  0.880306916304406 ]
    mass: 137.327000
    reduced_to: 61
  - symbol: Ba # 67
    coordinates: [  0.134221364399119,  0.008282427854288,  0.380306916304406 ]
    mass: 137.327000
    reduced_to: 61
  - symbol: Ba # 68
    coordinates: [  0.134221364399119,  0.341615761187621,  0.380306916304406 ]
    mass: 137.327000
    reduced_to: 61
  - symbol: Ba # 69
    coordinates: [  0.134221364399119,  0.674949094520954,  0.380306916304406 ]
    mass: 137.327000
    reduced_to: 61
  - symbol: Ba # 70
    coordinates: [  0.634221364399119,  0.008282427854288,  0.380306916304406 ]
    mass: 137.327000
    reduced_to: 61
  - symbol: Ba # 71
    coordinates: [  0.634221364399119,  0.341615761187621,  0.380306916304406 ]
    mass: 137.327000
    reduced_to: 61
  - symbol: Ba # 72
    coordinates: [  0.634221364399119,  0.674949094520954,  0.380306916304406 ]
    mass: 137.327000
    reduced_to: 61
  - symbol: Ba # 73
    coordinates: [  0.115778635600881,  0.008282427854287,  0.630306916304406 ]
    mass: 137.327000
    reduced_to: 73
  - symbol: Ba # 74
    coordinates: [  0.115778635600881,  0.341615761187621,  0.630306916304406 ]
    mass: 137.327000
    reduced_to: 73
  - symbol: Ba # 75
    coordinates: [  0.115778635600881,  0.674949094520954,  0.630306916304406 ]
    mass: 137.327000
    reduced_to: 73
  - symbol: Ba # 76
    coordinates: [  0.615778635600881,  0.008282427854287,  0.630306916304406 ]
    mass: 137.327000
    reduced_to: 73
  - symbol: Ba # 77
    coordinates: [  0.615778635600881,  0.341615761187621,  0.630306916304406 ]
    mass: 137.327000
    reduced_to: 73
  - symbol: Ba # 78
    coordinates: [  0.615778635600881,  0.674949094520954,  0.630306916304406 ]
    mass: 137.327000
    reduced_to: 73
  - symbol: Ba # 79
    coordinates: [  0.115778635600881,  0.008282427854287,  0.130306916304406 ]
    mass: 137.327000
    reduced_to: 73
  - symbol: Ba # 80
    coordinates: [  0.115778635600881,  0.341615761187621,  0.130306916304406 ]
    mass: 137.327000
    reduced_to: 73
  - symbol: Ba # 81
    coordinates: [  0.115778635600881,  0.674949094520954,  0.130306916304406 ]
    mass: 137.327000
    reduced_to: 73
  - symbol: Ba # 82
    coordinates: [  0.615778635600881,  0.008282427854287,  0.130306916304406 ]
    mass: 137.327000
    reduced_to: 73
  - symbol: Ba # 83
    coordinates: [  0.615778635600881,  0.341615761187621,  0.130306916304406 ]
    mass: 137.327000
    reduced_to: 73
  - symbol: Ba # 84
    coordinates: [  0.615778635600881,  0.674949094520954,  0.130306916304406 ]
    mass: 137.327000
    reduced_to: 73
  - symbol: Ba # 85
    coordinates: [  0.365778635600881,  0.325050905479040,  0.619693083695594 ]
    mass: 137.327000
    reduced_to: 85
  - symbol: Ba # 86
    coordinates: [  0.365778635600881,  0.658384238812374,  0.619693083695594 ]
    mass: 137.327000
    reduced_to: 85
  - symbol: Ba # 87
    coordinates: [  0.365778635600881,  0.991717572145707,  0.619693083695594 ]
    mass: 137.327000
    reduced_to: 85
  - symbol: Ba # 88
    coordinates: [  0.865778635600881,  0.325050905479040,  0.619693083695594 ]
    mass: 137.327000
    reduced_to: 85
  - symbol: Ba # 89
    coordinates: [  0.865778635600881,  0.658384238812374,  0.619693083695594 ]
    mass: 137.327000
    reduced_to: 85
  - symbol: Ba # 90
    coordinates: [  0.865778635600881,  0.991717572145707,  0.619693083695594 ]
    mass: 137.327000
    reduced_to: 85
  - symbol: Ba # 91
    coordinates: [  0.365778635600881,  0.325050905479040,  0.119693083695594 ]
    mass: 137.327000
    reduced_to: 85
  - symbol: Ba # 92
    coordinates: [  0.365778635600881,  0.658384238812374,  0.119693083695594 ]
    mass: 137.327000
    reduced_to: 85
  - symbol: Ba # 93
    coordinates: [  0.365778635600881,  0.991717572145707,  0.119693083695594 ]
    mass: 137.327000
    reduced_to: 85
  - symbol: Ba # 94
    coordinates: [  0.865778635600881,  0.325050905479040,  0.119693083695594 ]
    mass: 137.327000
    reduced_to: 85
  - symbol: Ba # 95
    coordinates: [  0.865778635600881,  0.658384238812374,  0.119693083695594 ]
    mass: 137.327000
    reduced_to: 85
  - symbol: Ba # 96
    coordinates: [  0.865778635600881,  0.991717572145707,  0.119693083695594 ]
    mass: 137.327000
    reduced_to: 85
  - symbol: Ba # 97
    coordinates: [  0.436408117249282,  0.247661767680344,  0.747109941546643 ]
    mass: 137.327000
    reduced_to: 97
  - symbol: Ba # 98
    coordinates: [  0.436408117249282,  0.580995101013678,  0.747109941546643 ]
    mass: 137.327000
    reduced_to: 97
  - symbol: Ba # 99
    coordinates: [  0.436408117249282,  0.914328434347011,  0.747109941546643 ]
    mass: 137.327000
    reduced_to: 97
  - symbol: Ba # 100
    coordinates: [  0.936408117249282,  0.247661767680344,  0.747109941546643 ]
    mass: 137.327000
    reduced_to: 97
  - symbol: Ba # 101
    coordinates: [  0.936408117249282,  0.580995101013678,  0.747109941546643 ]
    mass: 137.327000
    reduced_to: 97
  - symbol: Ba # 102
    coordinates: [  0.936408117249282,  0.914328434347011,  0.747109941546643 ]
    mass: 137.327000
    reduced_to: 97
  - symbol: Ba # 103
    coordinates: [  0.436408117249282,  0.247661767680344,  0.247109941546643 ]
    mass: 137.327000
    reduced_to: 97
  - symbol: Ba # 104
    coordinates: [  0.436408117249282,  0.580995101013678,  0.247109941546643 ]
    mass: 137.327000
    reduced_to: 97
  - symbol: Ba # 105
    coordinates: [  0.436408117249282,  0.914328434347011,  0.247109941546643 ]
    mass: 137.327000
    reduced_to: 97
  - symbol: Ba # 106
    coordinates: [  0.936408117249282,  0.247661767680344,  0.247109941546643 ]
    mass: 137.327000
    reduced_to: 97
  - symbol: Ba # 107
    coordinates: [  0.936408117249282,  0.580995101013678,  0.247109941546643 ]
    mass: 137.327000
    reduced_to: 97
  - symbol: Ba # 108
    coordinates: [  0.936408117249282,  0.914328434347011,  0.247109941546643 ]
    mass: 137.327000
    reduced_to: 97
  - symbol: Ba # 109
    coordinates: [  0.186408117249282,  0.085671565652984,  0.502890058453357 ]
    mass: 137.327000
    reduced_to: 109
  - symbol: Ba # 110
    coordinates: [  0.186408117249282,  0.419004898986317,  0.502890058453357 ]
    mass: 137.327000
    reduced_to: 109
  - symbol: Ba # 111
    coordinates: [  0.186408117249282,  0.752338232319650,  0.502890058453357 ]
    mass: 137.327000
    reduced_to: 109
  - symbol: Ba # 112
    coordinates: [  0.686408117249282,  0.085671565652984,  0.502890058453357 ]
    mass: 137.327000
    reduced_to: 109
  - symbol: Ba # 113
    coordinates: [  0.686408117249282,  0.419004898986317,  0.502890058453357 ]
    mass: 137.327000
    reduced_to: 109
  - symbol: Ba # 114
    coordinates: [  0.686408117249282,  0.752338232319650,  0.502890058453357 ]
    mass: 137.327000
    reduced_to: 109
  - symbol: Ba # 115
    coordinates: [  0.186408117249282,  0.085671565652984,  0.002890058453357 ]
    mass: 137.327000
    reduced_to: 109
  - symbol: Ba # 116
    coordinates: [  0.186408117249282,  0.419004898986317,  0.002890058453357 ]
    mass: 137.327000
    reduced_to: 109
  - symbol: Ba # 117
    coordinates: [  0.186408117249282,  0.752338232319650,  0.002890058453357 ]
    mass: 137.327000
    reduced_to: 109
  - symbol: Ba # 118
    coordinates: [  0.686408117249282,  0.085671565652984,  0.002890058453357 ]
    mass: 137.327000
    reduced_to: 109
  - symbol: Ba # 119
    coordinates: [  0.686408117249282,  0.419004898986317,  0.002890058453357 ]
    mass: 137.327000
    reduced_to: 109
  - symbol: Ba # 120
    coordinates: [  0.686408117249282,  0.752338232319650,  0.002890058453357 ]
    mass: 137.327000
    reduced_to: 109
  - symbol: Ba # 121
    coordinates: [  0.063591882750718,  0.085671565652984,  0.752890058453357 ]
    mass: 137.327000
    reduced_to: 121
  - symbol: Ba # 122
    coordinates: [  0.063591882750718,  0.419004898986317,  0.752890058453357 ]
    mass: 137.327000
    reduced_to: 121
  - symbol: Ba # 123
    coordinates: [  0.063591882750718,  0.752338232319650,  0.752890058453357 ]
    mass: 137.327000
    reduced_to: 121
  - symbol: Ba # 124
    coordinates: [  0.563591882750718,  0.085671565652984,  0.752890058453357 ]
    mass: 137.327000
    reduced_to: 121
  - symbol: Ba # 125
    coordinates: [  0.563591882750718,  0.419004898986317,  0.752890058453357 ]
    mass: 137.327000
    reduced_to: 121
  - symbol: Ba # 126
    coordinates: [  0.563591882750718,  0.752338232319650,  0.752890058453357 ]
    mass: 137.327000
    reduced_to: 121
  - symbol: Ba # 127
    coordinates: [  0.063591882750718,  0.085671565652984,  0.252890058453357 ]
    mass: 137.327000
    reduced_to: 121
  - symbol: Ba # 128
    coordinates: [  0.063591882750718,  0.419004898986317,  0.252890058453357 ]
    mass: 137.327000
    reduced_to: 121
  - symbol: Ba # 129