phonopy:
  version: "2.27.0"
  frequency_unit_conversion_factor: 15.633302
  symmetry_tolerance: 1.00000e-03

space_group:
  type: "P2_1/c"
  number: 14
  Hall_symbol: "-P 2ybc"

primitive_matrix:
- [ -1.000000000000000,  0.000000000000000, -0.000000000000000 ]
- [  0.000000000000000,  1.000000000000000,  0.000000000000000 ]
- [  0.000000000000000,  0.000000000000000, -1.000000000000000 ]

supercell_matrix:
- [   0,   4,  -2 ]
- [   4,   0,   0 ]
- [   0,   0,  -3 ]

primitive_cell:
  lattice:
  - [     0.000000000000001,    -5.838655506839265,    -0.038930099030024 ] # a
  - [     5.314803183224660,    -0.000000000000000,     0.000000000000000 ] # b
  - [    -0.000000000000001,     5.146448322084744,     9.541160675315725 ] # c
  points:
  - symbol: Li # 1
    coordinates: [  0.772572709519601,  0.171936866898613,  0.449754346080347 ]
    mass: 6.941000
  - symbol: Li # 2
    coordinates: [  0.227427290480373,  0.671936866898613,  0.050245653919655 ]
    mass: 6.941000
  - symbol: Li # 3
    coordinates: [  0.227427290480372,  0.828063133101394,  0.550245653919655 ]
    mass: 6.941000
  - symbol: Li # 4
    coordinates: [  0.772572709519600,  0.328063133101394,  0.949754346080347 ]
    mass: 6.941000
  - symbol: Li # 5
    coordinates: [  0.762225148111702,  0.922564248806609,  0.172253845412613 ]
    mass: 6.941000
  - symbol: Li # 6
    coordinates: [  0.237774851888271,  0.422564248806609,  0.327746154587389 ]
    mass: 6.941000
  - symbol: Li # 7
    coordinates: [  0.237774851888271,  0.077435751193399,  0.827746154587389 ]
    mass: 6.941000
  - symbol: Li # 8
    coordinates: [  0.762225148111702,  0.577435751193398,  0.672253845412613 ]
    mass: 6.941000
  - symbol: As # 9
    coordinates: [  0.710146091631559,  0.672396892609539,  0.403701491786027 ]
    mass: 74.921600
  - symbol: As # 10
    coordinates: [  0.289853908368413,  0.172396892609539,  0.096298508213974 ]
    mass: 74.921600
  - symbol: As # 11
    coordinates: [  0.289853908368414,  0.327603107390468,  0.596298508213975 ]
    mass: 74.921600
  - symbol: As # 12
    coordinates: [  0.710146091631560,  0.827603107390469,  0.903701491786027 ]
    mass: 74.921600
  - symbol: As # 13
    coordinates: [  0.700276756381628,  0.432569591510137,  0.202661562867949 ]
    mass: 74.921600
  - symbol: As # 14
    coordinates: [  0.299723243618345,  0.932569591510136,  0.297338437132053 ]
    mass: 74.921600
  - symbol: As # 15
    coordinates: [  0.299723243618345,  0.567430408489871,  0.797338437132053 ]
    mass: 74.921600
  - symbol: As # 16
    coordinates: [  0.700276756381627,  0.067430408489871,  0.702661562867948 ]
    mass: 74.921600
  reciprocal_lattice: # without 2pi
  - [    -0.000000000000000,    -0.171890510062347,     0.092716772853569 ] # a*
  - [     0.188153721883125,     0.000000000000000,     0.000000000000000 ] # b*
  - [    -0.000000000000000,    -0.000701352257526,     0.105187356895205 ] # c*

unit_cell:
  lattice:
  - [    -0.000000000000001,     5.838655506839266,     0.038930099030024 ] # a
  - [     5.314803183224660,    -0.000000000000000,     0.000000000000000 ] # b
  - [     0.000000000000001,    -5.146448322084745,    -9.541160675315725 ] # c
  points:
  - symbol: Li # 1
    coordinates: [  0.227427290480399,  0.171936866898613,  0.550245653919653 ]
    mass: 6.941000
    reduced_to: 1
  - symbol: Li # 2
    coordinates: [  0.772572709519627,  0.671936866898613,  0.949754346080345 ]
    mass: 6.941000
    reduced_to: 2
  - symbol: Li # 3
    coordinates: [  0.772572709519627,  0.828063133101394,  0.449754346080345 ]
    mass: 6.941000
    reduced_to: 3
  - symbol: Li # 4
    coordinates: [  0.227427290480400,  0.328063133101394,  0.050245653919654 ]
    mass: 6.941000
    reduced_to: 4
  - symbol: Li # 5
    coordinates: [  0.237774851888298,  0.922564248806609,  0.827746154587387 ]
    mass: 6.941000
    reduced_to: 5
  - symbol: Li # 6
    coordinates: [  0.762225148111729,  0.422564248806609,  0.672253845412612 ]
    mass: 6.941000
    reduced_to: 6
  - symbol: Li # 7
    coordinates: [  0.762225148111729,  0.077435751193399,  0.172253845412612 ]
    mass: 6.941000
    reduced_to: 7
  - symbol: Li # 8
    coordinates: [  0.237774851888298,  0.577435751193398,  0.327746154587387 ]
    mass: 6.941000
    reduced_to: 8
  - symbol: As # 9
    coordinates: [  0.289853908368441,  0.672396892609539,  0.596298508213973 ]
    mass: 74.921600
    reduced_to: 9
  - symbol: As # 10
    coordinates: [  0.710146091631587,  0.172396892609539,  0.903701491786026 ]
    mass: 74.921600
    reduced_to: 10
  - symbol: As # 11
    coordinates: [  0.710146091631586,  0.327603107390468,  0.403701491786025 ]
    mass: 74.921600
    reduced_to: 11
  - symbol: As # 12
    coordinates: [  0.289853908368440,  0.827603107390469,  0.096298508213973 ]
    mass: 74.921600
    reduced_to: 12
  - symbol: As # 13
    coordinates: [  0.299723243618372,  0.432569591510137,  0.797338437132051 ]
    mass: 74.921600
    reduced_to: 13
  - symbol: As # 14
    coordinates: [  0.700276756381654,  0.932569591510136,  0.702661562867947 ]
    mass: 74.921600
    reduced_to: 14
  - symbol: As # 15
    coordinates: [  0.700276756381655,  0.567430408489871,  0.202661562867947 ]
    mass: 74.921600
    reduced_to: 15
  - symbol: As # 16
    coordinates: [  0.299723243618372,  0.067430408489871,  0.297338437132052 ]
    mass: 74.921600
    reduced_to: 16

supercell:
  lattice:
  - [    21.259212732898639,    -0.000000000000002,     0.000000000000001 ] # a
  - [    -0.000000000000003,    23.354622027357060,     0.155720396120097 ] # b
  - [    -0.000000000000001,     3.762033952575706,    28.545621827887128 ] # c
  points:
  - symbol: Li # 1
    coordinates: [  0.042984216724653,  0.965149213633491,  0.816584782026782 ]
    mass: 6.941000
    reduced_to: 1
  - symbol: Li # 2
    coordinates: [  0.042984216724653,  0.215149213633491,  0.816584782026782 ]
    mass: 6.941000
    reduced_to: 1
  - symbol: Li # 3
    coordinates: [  0.042984216724653,  0.465149213633491,  0.816584782026782 ]
    mass: 6.941000
    reduced_to: 1
  - symbol: Li # 4
    coordinates: [  0.042984216724653,  0.715149213633491,  0.816584782026782 ]
    mass: 6.941000
    reduced_to: 1
  - symbol: Li # 5
    coordinates: [  0.292984216724653,  0.965149213633491,  0.816584782026782 ]
    mass: 6.941000
    reduced_to: 1
  - symbol: Li # 6
    coordinates: [  0.292984216724653,  0.215149213633491,  0.816584782026782 ]
    mass: 6.941000
    reduced_to: 1
  - symbol: Li # 7
    coordinates: [  0.292984216724653,  0.465149213633491,  0.816584782026782 ]
    mass: 6.941000
    reduced_to: 1
  - symbol: Li # 8
    coordinates: [  0.292984216724653,  0.715149213633491,  0.816584782026782 ]
    mass: 6.941000
    reduced_to: 1
  - symbol: Li # 9
    coordinates: [  0.542984216724653,  0.965149213633491,  0.816584782026782 ]
    mass: 6.941000
    reduced_to: 1
  - symbol: Li # 10
    coordinates: [  0.542984216724653,  0.215149213633491,  0.816584782026782 ]
    mass: 6.941000
    reduced_to: 1
  - symbol: Li # 11
    coordinates: [  0.542984216724653,  0.465149213633491,  0.816584782026782 ]
    mass: 6.941000
    reduced_to: 1
  - symbol: Li # 12
    coordinates: [  0.542984216724653,  0.715149213633491,  0.816584782026782 ]
    mass: 6.941000
    reduced_to: 1
  - symbol: Li # 13
    coordinates: [  0.792984216724653,  0.965149213633491,  0.816584782026782 ]
    mass: 6.941000
    reduced_to: 1
  - symbol: Li # 14
    coordinates: [  0.792984216724653,  0.215149213633491,  0.816584782026782 ]
    mass: 6.941000
    reduced_to: 1
  - symbol: Li # 15
    coordinates: [  0.792984216724653,  0.465149213633491,  0.816584782026782 ]
    mass: 6.941000
    reduced_to: 1
  - symbol: Li # 16
    coordinates: [  0.792984216724653,  0.715149213633491,  0.816584782026782 ]
    mass: 6.941000
    reduced_to: 1
  - symbol: Li # 17
    coordinates: [  0.042984216724653,  0.798482546966824,  0.483251448693449 ]
    mass: 6.941000
    reduced_to: 1
  - symbol: Li # 18
    coordinates: [  0.042984216724653,  0.048482546966824,  0.483251448693449 ]
    mass: 6.941000
    reduced_to: 1
  - symbol: Li # 19
    coordinates: [  0.042984216724653,  0.298482546966824,  0.483251448693449 ]
    mass: 6.941000
    reduced_to: 1
  - symbol: Li # 20
    coordinates: [  0.042984216724653,  0.548482546966824,  0.483251448693449 ]
    mass: 6.941000
    reduced_to: 1
  - symbol: Li # 21
    coordinates: [  0.292984216724653,  0.798482546966824,  0.483251448693449 ]
    mass: 6.941000
    reduced_to: 1
  - symbol: Li # 22
    coordinates: [  0.292984216724653,  0.048482546966824,  0.483251448693449 ]
    mass: 6.941000
    reduced_to: 1
  - symbol: Li # 23
    coordinates: [  0.292984216724653,  0.298482546966824,  0.483251448693449 ]
    mass: 6.941000
    reduced_to: 1
  - symbol: Li # 24
    coordinates: [  0.292984216724653,  0.548482546966824,  0.483251448693449 ]
    mass: 6.941000
    reduced_to: 1
  - symbol: Li # 25
    coordinates: [  0.542984216724653,  0.798482546966824,  0.483251448693449 ]
    mass: 6.941000
    reduced_to: 1
  - symbol: Li # 26
    coordinates: [  0.542984216724653,  0.048482546966824,  0.483251448693449 ]
    mass: 6.941000
    reduced_to: 1
  - symbol: Li # 27
    coordinates: [  0.542984216724653,  0.298482546966824,  0.483251448693449 ]
    mass: 6.941000
    reduced_to: 1
  - symbol: Li # 28
    coordinates: [  0.542984216724653,  0.548482546966824,  0.483251448693449 ]
    mass: 6.941000
    reduced_to: 1
  - symbol: Li # 29
    coordinates: [  0.792984216724653,  0.798482546966824,  0.483251448693449 ]
    mass: 6.941000
    reduced_to: 1
  - symbol: Li # 30
    coordinates: [  0.792984216724653,  0.048482546966824,  0.483251448693449 ]
    mass: 6.941000
    reduced_to: 1
  - symbol: Li # 31
    coordinates: [  0.792984216724653,  0.298482546966824,  0.483251448693449 ]
    mass: 6.941000
    reduced_to: 1
  - symbol: Li # 32
    coordinates: [  0.792984216724653,  0.548482546966824,  0.483251448693449 ]
    mass: 6.941000
    reduced_to: 1
  - symbol: Li # 33
    coordinates: [  0.042984216724653,  0.631815880300158,  0.149918115360116 ]
    mass: 6.941000
    reduced_to: 1
  - symbol: Li # 34
    coordinates: [  0.042984216724653,  0.881815880300158,  0.149918115360116 ]
    mass: 6.941000
    reduced_to: 1
  - symbol: Li # 35
    coordinates: [  0.042984216724653,  0.131815880300158,  0.149918115360116 ]
    mass: 6.941000
    reduced_to: 1
  - symbol: Li # 36
    coordinates: [  0.042984216724653,  0.381815880300158,  0.149918115360116 ]
    mass: 6.941000
    reduced_to: 1
  - symbol: Li # 37
    coordinates: [  0.292984216724653,  0.631815880300158,  0.149918115360116 ]
    mass: 6.941000
    reduced_to: 1
  - symbol: Li # 38
    coordinates: [  0.292984216724653,  0.881815880300158,  0.149918115360116 ]
    mass: 6.941000
    reduced_to: 1
  - symbol: Li # 39
    coordinates: [  0.292984216724653,  0.131815880300158,  0.149918115360116 ]
    mass: 6.941000
    reduced_to: 1
  - symbol: Li # 40
    coordinates: [  0.292984216724653,  0.381815880300158,  0.149918115360116 ]
    mass: 6.941000
    reduced_to: 1
  - symbol: Li # 41
    coordinates: [  0.542984216724653,  0.631815880300158,  0.149918115360116 ]
    mass: 6.941000
    reduced_to: 1
  - symbol: Li # 42
    coordinates: [  0.542984216724653,  0.881815880300158,  0.149918115360116 ]
    mass: 6.941000
    reduced_to: 1
  - symbol: Li # 43
    coordinates: [  0.542984216724653,  0.131815880300158,  0.149918115360116 ]
    mass: 6.941000
    reduced_to: 1
  - symbol: Li # 44
    coordinates: [  0.542984216724653,  0.381815880300158,  0.149918115360116 ]
    mass: 6.941000
    reduced_to: 1
  - symbol: Li # 45
    coordinates: [  0.792984216724653,  0.631815880300158,  0.149918115360116 ]
    mass: 6.941000
    reduced_to: 1
  - symbol: Li # 46
    coordinates: [  0.792984216724653,  0.881815880300158,  0.149918115360116 ]
    mass: 6.941000
    reduced_to: 1
  - symbol: Li # 47
    coordinates: [  0.792984216724653,  0.131815880300158,  0.149918115360116 ]
    mass: 6.941000
    reduced_to: 1
  - symbol: Li # 48
    coordinates: [  0.792984216724653,  0.381815880300158,  0.149918115360116 ]
    mass: 6.941000
    reduced_to: 1
  - symbol: Li # 49
    coordinates: [  0.167984216724653,  0.034850786366516,  0.683415217973218 ]
    mass: 6.941000
    reduced_to: 49
  - symbol: Li # 50
    coordinates: [  0.167984216724653,  0.284850786366516,  0.683415217973218 ]
    mass: 6.941000
    reduced_to: 49
  - symbol: Li # 51
    coordinates: [  0.167984216724653,  0.534850786366516,  0.683415217973218 ]
    mass: 6.941000
    reduced_to: 49
  - symbol: Li # 52
    coordinates: [  0.167984216724653,  0.784850786366516,  0.683415217973218 ]
    mass: 6.941000
    reduced_to: 49
  - symbol: Li # 53
    coordinates: [  0.417984216724653,  0.034850786366516,  0.683415217973218 ]
    mass: 6.941000
    reduced_to: 49
  - symbol: Li # 54
    coordinates: [  0.417984216724653,  0.284850786366516,  0.683415217973218 ]
    mass: 6.941000
    reduced_to: 49
  - symbol: Li # 55
    coordinates: [  0.417984216724653,  0.534850786366516,  0.683415217973218 ]
    mass: 6.941000
    reduced_to: 49
  - symbol: Li # 56
    coordinates: [  0.417984216724653,  0.784850786366516,  0.683415217973218 ]
    mass: 6.941000
    reduced_to: 49
  - symbol: Li # 57
    coordinates: [  0.667984216724653,  0.034850786366516,  0.683415217973218 ]
    mass: 6.941000
    reduced_to: 49
  - symbol: Li # 58
    coordinates: [  0.667984216724653,  0.284850786366516,  0.683415217973218 ]
    mass: 6.941000
    reduced_to: 49
  - symbol: Li # 59
    coordinates: [  0.667984216724653,  0.534850786366516,  0.683415217973218 ]
    mass: 6.941000
    reduced_to: 49
  - symbol: Li # 60
    coordinates: [  0.667984216724653,  0.784850786366516,  0.683415217973218 ]
    mass: 6.941000
    reduced_to: 49
  - symbol: Li # 61
    coordinates: [  0.917984216724653,  0.034850786366516,  0.683415217973218 ]
    mass: 6.941000
    reduced_to: 49
  - symbol: Li # 62
    coordinates: [  0.917984216724653,  0.284850786366516,  0.683415217973218 ]
    mass: 6.941000
    reduced_to: 49
  - symbol: Li # 63
    coordinates: [  0.917984216724653,  0.534850786366516,  0.683415217973218 ]
    mass: 6.941000
    reduced_to: 49
  - symbol: Li # 64
    coordinates: [  0.917984216724653,  0.784850786366516,  0.683415217973218 ]
    mass: 6.941000
    reduced_to: 49
  - symbol: Li # 65
    coordinates: [  0.167984216724653,  0.868184119699849,  0.350081884639885 ]
    mass: 6.941000
    reduced_to: 49
  - symbol: Li # 66
    coordinates: [  0.167984216724653,  0.118184119699849,  0.350081884639885 ]
    mass: 6.941000
    reduced_to: 49
  - symbol: Li # 67
    coordinates: [  0.167984216724653,  0.368184119699849,  0.350081884639885 ]
    mass: 6.941000
    reduced_to: 49
  - symbol: Li # 68
    coordinates: [  0.167984216724653,  0.618184119699849,  0.350081884639885 ]
    mass: 6.941000
    reduced_to: 49
  - symbol: Li # 69
    coordinates: [  0.417984216724653,  0.868184119699849,  0.350081884639885 ]
    mass: 6.941000
    reduced_to: 49
  - symbol: Li # 70
    coordinates: [  0.417984216724653,  0.118184119699849,  0.350081884639885 ]
    mass: 6.941000
    reduced_to: 49
  - symbol: Li # 71
    coordinates: [  0.417984216724653,  0.368184119699849,  0.350081884639885 ]
    mass: 6.941000
    reduced_to: 49
  - symbol: Li # 72
    coordinates: [  0.417984216724653,  0.618184119699849,  0.350081884639885 ]
    mass: 6.941000
    reduced_to: 49
  - symbol: Li # 73
    coordinates: [  0.667984216724653,  0.868184119699849,  0.350081884639885 ]
    mass: 6.941000
    reduced_to: 49
  - symbol: Li # 74
    coordinates: [  0.667984216724653,  0.118184119699849,  0.350081884639885 ]
    mass: 6.941000
    reduced_to: 49
  - symbol: Li # 75
    coordinates: [  0.667984216724653,  0.368184119699849,  0.350081884639885 ]
    mass: 6.941000
    reduced_to: 49
  - symbol: Li # 76
    coordinates: [  0.667984216724653,  0.618184119699849,  0.350081884639885 ]
    mass: 6.941000
    reduced_to: 49
  - symbol: Li # 77
    coordinates: [  0.917984216724653,  0.868184119699849,  0.350081884639885 ]
    mass: 6.941000
    reduced_to: 49
  - symbol: Li # 78
    coordinates: [  0.917984216724653,  0.118184119699849,  0.350081884639885 ]
    mass: 6.941000
    reduced_to: 49
  - symbol: Li # 79
    coordinates: [  0.917984216724653,  0.368184119699849,  0.350081884639885 ]
    mass: 6.941000
    reduced_to: 49
  - symbol: Li # 80
    coordinates: [  0.917984216724653,  0.618184119699849,  0.350081884639885 ]
    mass: 6.941000
    reduced_to: 49
  - symbol: Li # 81
    coordinates: [  0.167984216724653,  0.701517453033183,  0.016748551306552 ]
    mass: 6.941000
    reduced_to: 49
  - symbol: Li # 82
    coordinates: [  0.167984216724653,  0.951517453033183,  0.016748551306552 ]
    mass: 6.941000
    reduced_to: 49
  - symbol: Li # 83
    coordinates: [  0.167984216724653,  0.201517453033183,  0.016748551306552 ]
    mass: 6.941000
    reduced_to: 49
  - symbol: Li # 84
    coordinates: [  0.167984216724653,  0.451517453033183,  0.016748551306552 ]
    mass: 6.941000
    reduced_to: 49
  - symbol: Li # 85
    coordinates: [  0.417984216724653,  0.701517453033183,  0.016748551306552 ]
    mass: 6.941000
    reduced_to: 49
  - symbol: Li # 86
    coordinates: [  0.417984216724653,  0.951517453033183,  0.016748551306552 ]
    mass: 6.941000
    reduced_to: 49
  - symbol: Li # 87
    coordinates: [  0.417984216724653,  0.201517453033183,  0.016748551306552 ]
    mass: 6.941000
    reduced_to: 49
  - symbol: Li # 88
    coordinates: [  0.417984216724653,  0.451517453033183,  0.016748551306552 ]
    mass: 6.941000
    reduced_to: 49
  - symbol: Li # 89
    coordinates: [  0.667984216724653,  0.701517453033183,  0.016748551306552 ]
    mass: 6.941000
    reduced_to: 49
  - symbol: Li # 90
    coordinates: [  0.667984216724653,  0.951517453033183,  0.016748551306552 ]
    mass: 6.941000
    reduced_to: 49
  - symbol: Li # 91
    coordinates: [  0.667984216724653,  0.201517453033183,  0.016748551306552 ]
    mass: 6.941000
    reduced_to: 49
  - symbol: Li # 92
    coordinates: [  0.667984216724653,  0.451517453033183,  0.016748551306552 ]
    mass: 6.941000
    reduced_to: 49
  - symbol: Li # 93
    coordinates: [  0.917984216724653,  0.701517453033183,  0.016748551306552 ]
    mass: 6.941000
    reduced_to: 49
  - symbol: Li # 94
    coordinates: [  0.917984216724653,  0.951517453033183,  0.016748551306552 ]
    mass: 6.941000
    reduced_to: 49
  - symbol: Li # 95
    coordinates: [  0.917984216724653,  0.201517453033183,  0.016748551306552 ]
    mass: 6.941000
    reduced_to: 49
  - symbol: Li # 96
    coordinates: [  0.917984216724653,  0.451517453033183,  0.016748551306552 ]
    mass: 6.941000
    reduced_to: 49
  - symbol: Li # 97
    coordinates: [  0.207015783275349,  0.118184119699849,  0.850081884639885 ]
    mass: 6.941000
    reduced_to: 97
  - symbol: Li # 98
    coordinates: [  0.207015783275349,  0.368184119699849,  0.850081884639885 ]
    mass: 6.941000
    reduced_to: 97
  - symbol: Li # 99
    coordinates: [  0.207015783275349,  0.618184119699849,  0.850081884639885 ]
    mass: 6.941000
    reduced_to: 97
  - symbol: Li # 100
    coordinates: [  0.207015783275349,  0.868184119699849,  0.850081884639885 ]
    mass: 6.941000
    reduced_to: 97
  - symbol: Li # 101
    coordinates: [  0.457015783275349,  0.118184119699849,  0.850081884639885 ]
    mass: 6.941000
    reduced_to: 97
  - symbol: Li # 102
    coordinates: [  0.457015783275349,  0.368184119699849,  0.850081884639885 ]
    mass: 6.941000
    reduced_to: 97
  - symbol: Li # 103
    coordinates: [  0.457015783275349,  0.618184119699849,  0.850081884639885 ]
    mass: 6.941000
    reduced_to: 97
  - symbol: Li # 104
    coordinates: [  0.457015783275349,  0.868184119699849,  0.850081884639885 ]
    mass: 6.941000
    reduced_to: 97
  - symbol: Li # 105
    coordinates: [  0.707015783275349,  0.118184119699849,  0.850081884639885 ]
    mass: 6.941000
    reduced_to: 97
  - symbol: Li # 106
    coordinates: [  0.707015783275349,  0.368184119699849,  0.850081884639885 ]
    mass: 6.941000
    reduced_to: 97
  - symbol: Li # 107
    coordinates: [  0.707015783275349,  0.618184119699849,  0.850081884639885 ]
    mass: 6.941000
    reduced_to: 97
  - symbol: Li # 108
    coordinates: [  0.707015783275349,  0.868184119699849,  0.850081884639885 ]
    mass: 6.941000
    reduced_to: 97
  - symbol: Li # 109
    coordinates: [  0.957015783275349,  0.118184119699849,  0.850081884639885 ]
    mass: 6.941000
    reduced_to: 97
  - symbol: Li # 110
    coordinates: [  0.957015783275349,  0.368184119699849,  0.850081884639885 ]
    mass: 6.941000
    reduced_to: 97
  - symbol: Li # 111
    coordinates: [  0.957015783275349,  0.618184119699849,  0.850081884639885 ]
    mass: 6.941000
    reduced_to: 97
  - symbol: Li # 112
    coordinates: [  0.957015783275349,  0.868184119699849,  0.850081884639885 ]
    mass: 6.941000
    reduced_to: 97
  - symbol: Li # 113
    coordinates: [  0.207015783275349,  0.951517453033183,  0.516748551306552 ]
    mass: 6.941000
    reduced_to: 97
  - symbol: Li # 114
    coordinates: [  0.207015783275349,  0.201517453033183,  0.516748551306552 ]
    mass: 6.941000
    reduced_to: 97
  - symbol: Li # 115
    coordinates: [  0.207015783275349,  0.451517453033183,  0.516748551306552 ]
    mass: 6.941000
    reduced_to: 97
  - symbol: Li # 116
    coordinates: [  0.207015783275349,  0.701517453033183,  0.516748551306552 ]
    mass: 6.941000
    reduced_to: 97
  - symbol: Li # 117
    coordinates: [  0.457015783275349,  0.951517453033183,  0.516748551306552 ]
    mass: 6.941000
    reduced_to: 97
  - symbol: Li # 118
    coordinates: [  0.457015783275349,  0.201517453033183,  0.516748551306552 ]
    mass: 6.941000
    reduced_to: 97
  - symbol: Li # 119
    coordinates: [  0.457015783275349,  0.451517453033183,  0.516748551306552 ]
    mass: 6.941000
    reduced_to: 97
  - symbol: Li # 120
    coordinates: [  0.457015783275349,  0.701517453033183,  0.516748551306552 ]
    mass: 6.941000
    reduced_to: 97
  - symbol: Li # 121
    coordinates: [  0.707015783275349,  0.951517453033183,  0.516748551306552 ]
    mass: 6.941000
    reduced_to: 97
  - symbol: Li # 122
    coordinates: [  0.707015783275349,  0.201517453033183,  0.516748551306552 ]
    mass: 6.941000
    reduced_to: 97
  - symbol: Li # 123
    coordinates: [  0.707015783275349,  0.451517453033183,  0.516748551306552 ]
    mass: 6.941000
    reduced_to: 97
  - symbol: Li # 124
    coordinates: [  0.707015783275349,  0.701517453033183,  0.516748551306552 ]
    mass: 6.941000
    reduced_to: 97
  - symbol: Li # 125
    coordinates: [  0.957015783275349,  0.951517453033183,  0.516748551306552 ]
    mass: 6.941000
    reduced_to: 97
  - symbol: Li # 126
    coordinates: [  0.957015783275349,  0.201517453033183,  0.516748551306552 ]
    mass: 6.941000
    reduced_to: 97
  - symbol: Li # 127
    coordinates: [  0.957015783275349,  0.451517453033183,  0.516748551306552 ]
    mass: 6.941000
    reduced_to: 97
  - symbol: Li # 128
    coordinates: [  0.957015783275349,  0.701517453033183,  0.516748551306552 ]
    mass: 6.941000
    reduced_to: 97
  - symbol: Li # 129
    coordinates: [  0.207015783275349,  0.784850786366516,  0.183415217973218 ]
    mass: 6.941000
    reduced_to: 97
  - symbol: Li # 130
    coordinates: [  0.207015783275349,  0.034850786366516,  0.183415217973218 ]
    mass: 6.941000
    reduced_to: 97
  - symbol: Li # 131
    coordinates: [  0.207015783275349,  0.284850786366516,  0.183415217973218 ]
    mass: 6.941000
    reduced_to: 97
  - symbol: Li # 132
    coordinates: [  0.207015783275349,  0.534850786366516,  0.183415217973218 ]
    mass: 6.941000
    reduced_to: 97
  - symbol: Li # 133
    coordinates: [  0.457015783275349,  0.784850786366516,  0.183415217973218 ]
    mass: 6.941000
    reduced_to: 97
  - symbol: Li # 134
    coordinates: [  0.457015783275349,  0.034850786366516,  0.183415217973218 ]
    mass: 6.941000
    reduced_to: 97
  - symbol: Li # 135
    coordinates: [  0.457015783275349,  0.284850786366516,  0.183415217973218 ]
    mass: 6.941000
    reduced_to: 97
  - symbol: Li # 136
    coordinates: [  0.457015783275349,  0.534850786366516,  0.183415217973218 ]
    mass: 6.941000
    reduced_to: 97
  - symbol: Li # 137
    coordinates: [  0.707015783275349,  0.784850786366516,  0.183415217973218 ]
    mass: 6.941000
    reduced_to: 97
  - symbol: Li # 138
    coordinates: [  0.707015783275349,  0.034850786366516,  0.183415217973218 ]
    mass: 6.941000
    reduced_to: 97
  - symbol: Li # 139
    coordinates: [  0.707015783275349,  0.284850786366516,  0.183415217973218 ]
    mass: 6.941000
    reduced_to: 97
  - symbol: Li # 140
    coordinates: [  0.707015783275349,  0.534850786366516,  0.183415217973218 ]
    mass: 6.941000
    reduced_to: 97
  - symbol: Li # 141
    coordinates: [  0.957015783275349,  0.784850786366516,  0.183415217973218 ]
    mass: 6.941000
    reduced_to: 97
  - symbol: Li # 142
    coordinates: [  0.957015783275349,  0.034850786366516,  0.183415217973218 ]
    mass: 6.941000
    reduced_to: 97
  - symbol: Li # 143
    coordinates: [  0.957015783275349,  0.284850786366516,  0.183415217973218 ]
    mass: 6.941000
    reduced_to: 97
  - symbol: Li # 144
    coordinates: [  0.957015783275349,  0.534850786366516,  0.183415217973218 ]
    mass: 6.941000
    reduced_to: 97
  - symbol: Li # 145
    coordinates: [  0.082015783275348,  0.048482546966824,  0.983251448693449 ]
    mass: 6.941000
    reduced_to: 145
  - symbol: Li # 146
    coordinates: [  0.082015783275348,  0.298482546966824,  0.983251448693449 ]
    mass: 6.941000
    reduced_to: 145
  - symbol: Li # 147
    coordinates: [  0.082015783275348,  0.548482546966824,  0.983251448693449 ]
    mass: 6.941000
    reduced_to: 145
  - symbol: Li # 148
    coordinates: [  0.082015783275348,  0.798482546966824,  0.983251448693449 ]
    mass: 6.941000
    reduced_to: 145
  - symbol: Li # 149
    coordinates: [  0.332015783275348,  0.048482546966824,  0.983251448693449 ]
    mass: 6.941000
    reduced_to: 145
  - symbol: Li # 150
    coordinates: [  0.332015783275348,  0.298482546966824,  0.983251448693449 ]
    mass: 6.941000
    reduced_to: 145
  - symbol: Li # 151
    coordinates: [  0.332015783275348,  0.548482546966824,  0.983251448693449 ]
    mass: 6.941000
    reduced_to: 145
  - symbol: Li # 152
    coordinates: [  0.332015783275348,  0.798482546966824,  0.983251448693449 ]
    mass: 6.941000
    reduced_to: 145
  - symbol: Li # 153
    coordinates: [  0.582015783275348,  0.048482546966824,  0.983251448693449 ]
    mass: 6.941000
    reduced_to: 145
  - symbol: Li # 154
    coordinates: [  0.582015783275348,  0.298482546966824,  0.983251448693449 ]
    mass: 6.941000
    reduced_to: 145
  - symbol: Li # 155
    coordinates: [  0.582015783275348,  0.548482546966824,  0.983251448693449 ]
    mass: 6.941000
    reduced_to: 145
  - symbol: Li # 156
    coordinates: [  0.582015783275348,  0.798482546966824,  0.983251448693449 ]
    mass: 6.941000
    reduced_to: 145
  - symbol: Li # 157
    coordinates: [  0.832015783275348,  0.048482546966824,  0.983251448693449 ]
    mass: 6.941000
    reduced_to: 145
  - symbol: Li # 158
    coordinates: [  0.832015783275348,  0.298482546966824,  0.983251448693449 ]
    mass: 6.941000
    reduced_to: 145
  - symbol: Li # 159
    coordinates: [  0.832015783275348,  0.548482546966824,  0.983251448693449 ]
    mass: 6.941000
    reduced_to: 145
  - symbol: Li # 160
    coordinates: [  0.832015783275348,  0.798482546966824,  0.983251448693449 ]
    mass: 6.941000
    reduced_to: 145
  - symbol: Li # 161
    coordinates: [  0.082015783275348,  0.881815880300158,  0.649918115360115 ]
    mass: 6.941000
    reduced_to: 145
  - symbol: Li # 162
    coordinates: [  0.082015783275348,  0.131815880300158,  0.649918115360115 ]
    mass: 6.941000
    reduced_to: 145
  - symbol: Li # 163
    coordinates: [  0.082015783275348,  0.381815880300158,  0.649918115360115 ]
    mass: 6.941000
    reduced_to: 145
  - symbol: Li # 164
    coordinates: [  0.082015783275348,  0.631815880300158,  0.649918115360115 ]
    mass: 6.941000
    reduced_to: 145
  - symbol: Li # 165
    coordinates: [  0.332015783275348,  0.881815880300158,  0.649918115360115 ]
    mass: 6.941000
    reduced_to: 145
  - symbol: Li # 166
    coordinates: [  0.332015783275348,  0.131815880300158,  0.649918115360115 ]
    mass: 6.941000
    reduced_to: 145
  - symbol: Li # 167
    coordinates: [  0.332015783275348,  0.381815880300158,  0.649918115360115 ]
    mass: 6.941000
    reduced_to: 145
  - symbol: Li # 168
    coordinates: [  0.332015783275348,  0.631815880300158,  0.649918115360115 ]
    mass: 6.941000
    reduced_to: 145
  - symbol: Li # 169
    coordinates: [  0.582015783275348,  0.881815880300158,  0.649918115360115 ]
    mass: 6.941000
    reduced_to: 145
  - symbol: Li # 170
    coordinates: [  0.582015783275348,  0.131815880300158,  0.649918115360115 ]
    mass: 6.941000
    reduced_to: 145
  - symbol: Li # 171
    coordinates: [  0.582015783275348,  0.381815880300158,  0.649918115360115 ]
    mass: 6.941000
    reduced_to: 145
  - symbol: Li # 172
    coordinates: [  0.582015783275348,  0.631815880300158,  0.649918115360115 ]
    mass: 6.941000
    reduced_to: 145
  - symbol: Li # 173
    coordinates: [  0.832015783275348,  0.881815880300158,  0.649918115360115 ]
    mass: 6.941000
    reduced_to: 145
  - symbol: Li # 174
    coordinates: [  0.832015783275348,  0.131815880300158,  0.649918115360115 ]
    mass: 6.941000
    reduced_to: 145
  - symbol: Li # 175
    coordinates: [  0.832015783275348,  0.381815880300158,  0.649918115360115 ]
    mass: 6.941000
    reduced_to: 145
  - symbol: Li # 176
    coordinates: [  0.832015783275348,  0.631815880300158,  0.649918115360115 ]
    mass: 6.941000