phonopy:
  version: "2.27.0"
  frequency_unit_conversion_factor: 15.633302
  symmetry_tolerance: 1.00000e-04

space_group:
  type: "P2_1/c"
  number: 14
  Hall_symbol: "-P 2ybc"

primitive_matrix:
- [ -1.000000000000000,  0.000000000000000,  0.000000000000000 ]
- [  0.000000000000000,  1.000000000000000,  0.000000000000000 ]
- [ -0.000000000000000,  0.000000000000000, -1.000000000000000 ]

supercell_matrix:
- [   0,   5,   0 ]
- [   4,   0,   0 ]
- [  -2,   0,  -3 ]

primitive_cell:
  lattice:
  - [    -0.000000000000001,    -5.838655506839157,    -0.038930099030236 ] # a
  - [     5.314803183224649,     0.000000000000001,     0.000000000000000 ] # b
  - [    -0.000000000000002,     5.146448322084940,     9.541160675316156 ] # c
  points:
  - symbol: Li # 1
    coordinates: [  0.772572709519610,  0.171936866898624,  0.449754346080335 ]
    mass: 6.941000
  - symbol: Li # 2
    coordinates: [  0.227427290480367,  0.671936866898623,  0.050245653919666 ]
    mass: 6.941000
  - symbol: Li # 3
    coordinates: [  0.227427290480367,  0.828063133101381,  0.550245653919666 ]
    mass: 6.941000
  - symbol: Li # 4
    coordinates: [  0.772572709519609,  0.328063133101382,  0.949754346080335 ]
    mass: 6.941000
  - symbol: Li # 5
    coordinates: [  0.762225148111696,  0.922564248806637,  0.172253845412597 ]
    mass: 6.941000
  - symbol: Li # 6
    coordinates: [  0.237774851888280,  0.422564248806638,  0.327746154587404 ]
    mass: 6.941000
  - symbol: Li # 7
    coordinates: [  0.237774851888281,  0.077435751193367,  0.827746154587404 ]
    mass: 6.941000
  - symbol: Li # 8
    coordinates: [  0.762225148111696,  0.577435751193367,  0.672253845412598 ]
    mass: 6.941000
  - symbol: As # 9
    coordinates: [  0.710146091631549,  0.672396892609553,  0.403701491786026 ]
    mass: 74.921600
  - symbol: As # 10
    coordinates: [  0.289853908368428,  0.172396892609553,  0.096298508213975 ]
    mass: 74.921600
  - symbol: As # 11
    coordinates: [  0.289853908368428,  0.327603107390451,  0.596298508213975 ]
    mass: 74.921600
  - symbol: As # 12
    coordinates: [  0.710146091631549,  0.827603107390451,  0.903701491786026 ]
    mass: 74.921600
  - symbol: As # 13
    coordinates: [  0.700276756381638,  0.432569591510179,  0.202661562867953 ]
    mass: 74.921600
  - symbol: As # 14
    coordinates: [  0.299723243618338,  0.932569591510179,  0.297338437132049 ]
    mass: 74.921600
  - symbol: As # 15
    coordinates: [  0.299723243618339,  0.567430408489826,  0.797338437132048 ]
    mass: 74.921600
  - symbol: As # 16
    coordinates: [  0.700276756381638,  0.067430408489826,  0.702661562867953 ]
    mass: 74.921600
  reciprocal_lattice: # without 2pi
  - [     0.000000000000000,    -0.171890510062354,     0.092716772853572 ] # a*
  - [     0.188153721883125,    -0.000000000000000,     0.000000000000000 ] # b*
  - [    -0.000000000000000,    -0.000701352257530,     0.105187356895203 ] # c*

unit_cell:
  lattice:
  - [     0.000000000000001,     5.838655506839155,     0.038930099030236 ] # a
  - [     5.314803183224648,     0.000000000000001,    -0.000000000000000 ] # b
  - [     0.000000000000002,    -5.146448322084940,    -9.541160675316155 ] # c
  points:
  - symbol: Li # 1
    coordinates: [  0.227427290480390,  0.171936866898624,  0.550245653919664 ]
    mass: 6.941000
    reduced_to: 1
  - symbol: Li # 2
    coordinates: [  0.772572709519633,  0.671936866898623,  0.949754346080333 ]
    mass: 6.941000
    reduced_to: 2
  - symbol: Li # 3
    coordinates: [  0.772572709519633,  0.828063133101382,  0.449754346080333 ]
    mass: 6.941000
    reduced_to: 3
  - symbol: Li # 4
    coordinates: [  0.227427290480391,  0.328063133101382,  0.050245653919665 ]
    mass: 6.941000
    reduced_to: 4
  - symbol: Li # 5
    coordinates: [  0.237774851888305,  0.922564248806637,  0.827746154587402 ]
    mass: 6.941000
    reduced_to: 5
  - symbol: Li # 6
    coordinates: [  0.762225148111720,  0.422564248806638,  0.672253845412596 ]
    mass: 6.941000
    reduced_to: 6
  - symbol: Li # 7
    coordinates: [  0.762225148111720,  0.077435751193367,  0.172253845412596 ]
    mass: 6.941000
    reduced_to: 7
  - symbol: Li # 8
    coordinates: [  0.237774851888304,  0.577435751193367,  0.327746154587402 ]
    mass: 6.941000
    reduced_to: 8
  - symbol: As # 9
    coordinates: [  0.289853908368451,  0.672396892609553,  0.596298508213973 ]
    mass: 74.921600
    reduced_to: 9
  - symbol: As # 10
    coordinates: [  0.710146091631572,  0.172396892609553,  0.903701491786024 ]
    mass: 74.921600
    reduced_to: 10
  - symbol: As # 11
    coordinates: [  0.710146091631572,  0.327603107390452,  0.403701491786025 ]
    mass: 74.921600
    reduced_to: 11
  - symbol: As # 12
    coordinates: [  0.289853908368451,  0.827603107390451,  0.096298508213973 ]
    mass: 74.921600
    reduced_to: 12
  - symbol: As # 13
    coordinates: [  0.299723243618362,  0.432569591510179,  0.797338437132046 ]
    mass: 74.921600
    reduced_to: 13
  - symbol: As # 14
    coordinates: [  0.700276756381662,  0.932569591510179,  0.702661562867951 ]
    mass: 74.921600
    reduced_to: 14
  - symbol: As # 15
    coordinates: [  0.700276756381661,  0.567430408489826,  0.202661562867952 ]
    mass: 74.921600
    reduced_to: 15
  - symbol: As # 16
    coordinates: [  0.299723243618362,  0.067430408489826,  0.297338437132047 ]
    mass: 74.921600
    reduced_to: 16

supercell:
  lattice:
  - [    21.259212732898590,    10.292896644169883,    19.082321350632309 ] # a
  - [     0.000000000000003,    29.193277534195772,     0.194650495151178 ] # b
  - [    -0.000000000000006,    15.439344966254819,    28.623482025948466 ] # c
  points:
  - symbol: Li # 1
    coordinates: [  0.042984216724656,  0.045485458096078,  0.787928637543675 ]
    mass: 6.941000
    reduced_to: 1
  - symbol: Li # 2
    coordinates: [  0.042984216724656,  0.245485458096078,  0.787928637543675 ]
    mass: 6.941000
    reduced_to: 1
  - symbol: Li # 3
    coordinates: [  0.042984216724656,  0.445485458096078,  0.787928637543675 ]
    mass: 6.941000
    reduced_to: 1
  - symbol: Li # 4
    coordinates: [  0.042984216724656,  0.645485458096078,  0.787928637543675 ]
    mass: 6.941000
    reduced_to: 1
  - symbol: Li # 5
    coordinates: [  0.042984216724656,  0.845485458096078,  0.787928637543675 ]
    mass: 6.941000
    reduced_to: 1
  - symbol: Li # 6
    coordinates: [  0.292984216724656,  0.045485458096078,  0.621261970877008 ]
    mass: 6.941000
    reduced_to: 1
  - symbol: Li # 7
    coordinates: [  0.292984216724656,  0.245485458096078,  0.621261970877008 ]
    mass: 6.941000
    reduced_to: 1
  - symbol: Li # 8
    coordinates: [  0.292984216724656,  0.445485458096078,  0.621261970877008 ]
    mass: 6.941000
    reduced_to: 1
  - symbol: Li # 9
    coordinates: [  0.292984216724656,  0.645485458096078,  0.621261970877008 ]
    mass: 6.941000
    reduced_to: 1
  - symbol: Li # 10
    coordinates: [  0.292984216724656,  0.845485458096078,  0.621261970877008 ]
    mass: 6.941000
    reduced_to: 1
  - symbol: Li # 11
    coordinates: [  0.542984216724656,  0.045485458096078,  0.454595304210341 ]
    mass: 6.941000
    reduced_to: 1
  - symbol: Li # 12
    coordinates: [  0.542984216724656,  0.245485458096078,  0.454595304210341 ]
    mass: 6.941000
    reduced_to: 1
  - symbol: Li # 13
    coordinates: [  0.542984216724656,  0.445485458096078,  0.454595304210341 ]
    mass: 6.941000
    reduced_to: 1
  - symbol: Li # 14
    coordinates: [  0.542984216724656,  0.645485458096078,  0.454595304210341 ]
    mass: 6.941000
    reduced_to: 1
  - symbol: Li # 15
    coordinates: [  0.542984216724656,  0.845485458096078,  0.454595304210341 ]
    mass: 6.941000
    reduced_to: 1
  - symbol: Li # 16
    coordinates: [  0.792984216724656,  0.045485458096078,  0.287928637543674 ]
    mass: 6.941000
    reduced_to: 1
  - symbol: Li # 17
    coordinates: [  0.792984216724656,  0.245485458096078,  0.287928637543674 ]
    mass: 6.941000
    reduced_to: 1
  - symbol: Li # 18
    coordinates: [  0.792984216724656,  0.445485458096078,  0.287928637543674 ]
    mass: 6.941000
    reduced_to: 1
  - symbol: Li # 19
    coordinates: [  0.792984216724656,  0.645485458096078,  0.287928637543674 ]
    mass: 6.941000
    reduced_to: 1
  - symbol: Li # 20
    coordinates: [  0.792984216724656,  0.845485458096078,  0.287928637543674 ]
    mass: 6.941000
    reduced_to: 1
  - symbol: Li # 21
    coordinates: [  0.042984216724656,  0.045485458096078,  0.454595304210341 ]
    mass: 6.941000
    reduced_to: 1
  - symbol: Li # 22
    coordinates: [  0.042984216724656,  0.245485458096078,  0.454595304210341 ]
    mass: 6.941000
    reduced_to: 1
  - symbol: Li # 23
    coordinates: [  0.042984216724656,  0.445485458096078,  0.454595304210341 ]
    mass: 6.941000
    reduced_to: 1
  - symbol: Li # 24
    coordinates: [  0.042984216724656,  0.645485458096078,  0.454595304210341 ]
    mass: 6.941000
    reduced_to: 1
  - symbol: Li # 25
    coordinates: [  0.042984216724656,  0.845485458096078,  0.454595304210341 ]
    mass: 6.941000
    reduced_to: 1
  - symbol: Li # 26
    coordinates: [  0.292984216724656,  0.045485458096078,  0.287928637543675 ]
    mass: 6.941000
    reduced_to: 1
  - symbol: Li # 27
    coordinates: [  0.292984216724656,  0.245485458096078,  0.287928637543675 ]
    mass: 6.941000
    reduced_to: 1
  - symbol: Li # 28
    coordinates: [  0.292984216724656,  0.445485458096078,  0.287928637543675 ]
    mass: 6.941000
    reduced_to: 1
  - symbol: Li # 29
    coordinates: [  0.292984216724656,  0.645485458096078,  0.287928637543675 ]
    mass: 6.941000
    reduced_to: 1
  - symbol: Li # 30
    coordinates: [  0.292984216724656,  0.845485458096078,  0.287928637543675 ]
    mass: 6.941000
    reduced_to: 1
  - symbol: Li # 31
    coordinates: [  0.542984216724656,  0.045485458096078,  0.121261970877008 ]
    mass: 6.941000
    reduced_to: 1
  - symbol: Li # 32
    coordinates: [  0.542984216724656,  0.245485458096078,  0.121261970877008 ]
    mass: 6.941000
    reduced_to: 1
  - symbol: Li # 33
    coordinates: [  0.542984216724656,  0.445485458096078,  0.121261970877008 ]
    mass: 6.941000
    reduced_to: 1
  - symbol: Li # 34
    coordinates: [  0.542984216724656,  0.645485458096078,  0.121261970877008 ]
    mass: 6.941000
    reduced_to: 1
  - symbol: Li # 35
    coordinates: [  0.542984216724656,  0.845485458096078,  0.121261970877008 ]
    mass: 6.941000
    reduced_to: 1
  - symbol: Li # 36
    coordinates: [  0.792984216724656,  0.045485458096078,  0.954595304210341 ]
    mass: 6.941000
    reduced_to: 1
  - symbol: Li # 37
    coordinates: [  0.792984216724656,  0.245485458096078,  0.954595304210341 ]
    mass: 6.941000
    reduced_to: 1
  - symbol: Li # 38
    coordinates: [  0.792984216724656,  0.445485458096078,  0.954595304210341 ]
    mass: 6.941000
    reduced_to: 1
  - symbol: Li # 39
    coordinates: [  0.792984216724656,  0.645485458096078,  0.954595304210341 ]
    mass: 6.941000
    reduced_to: 1
  - symbol: Li # 40
    coordinates: [  0.792984216724656,  0.845485458096078,  0.954595304210341 ]
    mass: 6.941000
    reduced_to: 1
  - symbol: Li # 41
    coordinates: [  0.042984216724656,  0.045485458096078,  0.121261970877008 ]
    mass: 6.941000
    reduced_to: 1
  - symbol: Li # 42
    coordinates: [  0.042984216724656,  0.245485458096078,  0.121261970877008 ]
    mass: 6.941000
    reduced_to: 1
  - symbol: Li # 43
    coordinates: [  0.042984216724656,  0.445485458096078,  0.121261970877008 ]
    mass: 6.941000
    reduced_to: 1
  - symbol: Li # 44
    coordinates: [  0.042984216724656,  0.645485458096078,  0.121261970877008 ]
    mass: 6.941000
    reduced_to: 1
  - symbol: Li # 45
    coordinates: [  0.042984216724656,  0.845485458096078,  0.121261970877008 ]
    mass: 6.941000
    reduced_to: 1
  - symbol: Li # 46
    coordinates: [  0.292984216724656,  0.045485458096078,  0.954595304210341 ]
    mass: 6.941000
    reduced_to: 1
  - symbol: Li # 47
    coordinates: [  0.292984216724656,  0.245485458096078,  0.954595304210341 ]
    mass: 6.941000
    reduced_to: 1
  - symbol: Li # 48
    coordinates: [  0.292984216724656,  0.445485458096078,  0.954595304210341 ]
    mass: 6.941000
    reduced_to: 1
  - symbol: Li # 49
    coordinates: [  0.292984216724656,  0.645485458096078,  0.954595304210341 ]
    mass: 6.941000
    reduced_to: 1
  - symbol: Li # 50
    coordinates: [  0.292984216724656,  0.845485458096078,  0.954595304210341 ]
    mass: 6.941000
    reduced_to: 1
  - symbol: Li # 51
    coordinates: [  0.542984216724656,  0.045485458096078,  0.787928637543674 ]
    mass: 6.941000
    reduced_to: 1
  - symbol: Li # 52
    coordinates: [  0.542984216724656,  0.245485458096078,  0.787928637543674 ]
    mass: 6.941000
    reduced_to: 1
  - symbol: Li # 53
    coordinates: [  0.542984216724656,  0.445485458096078,  0.787928637543674 ]
    mass: 6.941000
    reduced_to: 1
  - symbol: Li # 54
    coordinates: [  0.542984216724656,  0.645485458096078,  0.787928637543674 ]
    mass: 6.941000
    reduced_to: 1
  - symbol: Li # 55
    coordinates: [  0.542984216724656,  0.845485458096078,  0.787928637543674 ]
    mass: 6.941000
    reduced_to: 1
  - symbol: Li # 56
    coordinates: [  0.792984216724656,  0.045485458096078,  0.621261970877008 ]
    mass: 6.941000
    reduced_to: 1
  - symbol: Li # 57
    coordinates: [  0.792984216724656,  0.245485458096078,  0.621261970877008 ]
    mass: 6.941000
    reduced_to: 1
  - symbol: Li # 58
    coordinates: [  0.792984216724656,  0.445485458096078,  0.621261970877008 ]
    mass: 6.941000
    reduced_to: 1
  - symbol: Li # 59
    coordinates: [  0.792984216724656,  0.645485458096078,  0.621261970877008 ]
    mass: 6.941000
    reduced_to: 1
  - symbol: Li # 60
    coordinates: [  0.792984216724656,  0.845485458096078,  0.621261970877008 ]
    mass: 6.941000
    reduced_to: 1
  - symbol: Li # 61
    coordinates: [  0.167984216724656,  0.154514541903927,  0.571425740156785 ]
    mass: 6.941000
    reduced_to: 61
  - symbol: Li # 62
    coordinates: [  0.167984216724656,  0.354514541903927,  0.571425740156785 ]
    mass: 6.941000
    reduced_to: 61
  - symbol: Li # 63
    coordinates: [  0.167984216724656,  0.554514541903927,  0.571425740156785 ]
    mass: 6.941000
    reduced_to: 61
  - symbol: Li # 64
    coordinates: [  0.167984216724656,  0.754514541903927,  0.571425740156785 ]
    mass: 6.941000
    reduced_to: 61
  - symbol: Li # 65
    coordinates: [  0.167984216724656,  0.954514541903927,  0.571425740156785 ]
    mass: 6.941000
    reduced_to: 61
  - symbol: Li # 66
    coordinates: [  0.417984216724656,  0.154514541903927,  0.404759073490118 ]
    mass: 6.941000
    reduced_to: 61
  - symbol: Li # 67
    coordinates: [  0.417984216724656,  0.354514541903927,  0.404759073490118 ]
    mass: 6.941000
    reduced_to: 61
  - symbol: Li # 68
    coordinates: [  0.417984216724656,  0.554514541903927,  0.404759073490118 ]
    mass: 6.941000
    reduced_to: 61
  - symbol: Li # 69
    coordinates: [  0.417984216724656,  0.754514541903927,  0.404759073490118 ]
    mass: 6.941000
    reduced_to: 61
  - symbol: Li # 70
    coordinates: [  0.417984216724656,  0.954514541903927,  0.404759073490118 ]
    mass: 6.941000
    reduced_to: 61
  - symbol: Li # 71
    coordinates: [  0.667984216724656,  0.154514541903927,  0.238092406823452 ]
    mass: 6.941000
    reduced_to: 61
  - symbol: Li # 72
    coordinates: [  0.667984216724656,  0.354514541903927,  0.238092406823452 ]
    mass: 6.941000
    reduced_to: 61
  - symbol: Li # 73
    coordinates: [  0.667984216724656,  0.554514541903927,  0.238092406823452 ]
    mass: 6.941000
    reduced_to: 61
  - symbol: Li # 74
    coordinates: [  0.667984216724656,  0.754514541903927,  0.238092406823452 ]
    mass: 6.941000
    reduced_to: 61
  - symbol: Li # 75
    coordinates: [  0.667984216724656,  0.954514541903927,  0.238092406823452 ]
    mass: 6.941000
    reduced_to: 61
  - symbol: Li # 76
    coordinates: [  0.917984216724656,  0.154514541903927,  0.071425740156785 ]
    mass: 6.941000
    reduced_to: 61
  - symbol: Li # 77
    coordinates: [  0.917984216724656,  0.354514541903927,  0.071425740156785 ]
    mass: 6.941000
    reduced_to: 61
  - symbol: Li # 78
    coordinates: [  0.917984216724656,  0.554514541903927,  0.071425740156785 ]
    mass: 6.941000
    reduced_to: 61
  - symbol: Li # 79
    coordinates: [  0.917984216724656,  0.754514541903927,  0.071425740156785 ]
    mass: 6.941000
    reduced_to: 61
  - symbol: Li # 80
    coordinates: [  0.917984216724656,  0.954514541903927,  0.071425740156785 ]
    mass: 6.941000
    reduced_to: 61
  - symbol: Li # 81
    coordinates: [  0.167984216724656,  0.154514541903927,  0.238092406823452 ]
    mass: 6.941000
    reduced_to: 61
  - symbol: Li # 82
    coordinates: [  0.167984216724656,  0.354514541903927,  0.238092406823452 ]
    mass: 6.941000
    reduced_to: 61
  - symbol: Li # 83
    coordinates: [  0.167984216724656,  0.554514541903927,  0.238092406823452 ]
    mass: 6.941000
    reduced_to: 61
  - symbol: Li # 84
    coordinates: [  0.167984216724656,  0.754514541903927,  0.238092406823452 ]
    mass: 6.941000
    reduced_to: 61
  - symbol: Li # 85
    coordinates: [  0.167984216724656,  0.954514541903927,  0.238092406823452 ]
    mass: 6.941000
    reduced_to: 61
  - symbol: Li # 86
    coordinates: [  0.417984216724656,  0.154514541903927,  0.071425740156785 ]
    mass: 6.941000
    reduced_to: 61
  - symbol: Li # 87
    coordinates: [  0.417984216724656,  0.354514541903927,  0.071425740156785 ]
    mass: 6.941000
    reduced_to: 61
  - symbol: Li # 88
    coordinates: [  0.417984216724656,  0.554514541903927,  0.071425740156785 ]
    mass: 6.941000
    reduced_to: 61
  - symbol: Li # 89
    coordinates: [  0.417984216724656,  0.754514541903927,  0.071425740156785 ]
    mass: 6.941000
    reduced_to: 61
  - symbol: Li # 90
    coordinates: [  0.417984216724656,  0.954514541903927,  0.071425740156785 ]
    mass: 6.941000
    reduced_to: 61
  - symbol: Li # 91
    coordinates: [  0.667984216724656,  0.154514541903927,  0.904759073490118 ]
    mass: 6.941000
    reduced_to: 61
  - symbol: Li # 92
    coordinates: [  0.667984216724656,  0.354514541903927,  0.904759073490118 ]
    mass: 6.941000
    reduced_to: 61
  - symbol: Li # 93
    coordinates: [  0.667984216724656,  0.554514541903927,  0.904759073490118 ]
    mass: 6.941000
    reduced_to: 61
  - symbol: Li # 94
    coordinates: [  0.667984216724656,  0.754514541903927,  0.904759073490118 ]
    mass: 6.941000
    reduced_to: 61
  - symbol: Li # 95
    coordinates: [  0.667984216724656,  0.954514541903927,  0.904759073490118 ]
    mass: 6.941000
    reduced_to: 61
  - symbol: Li # 96
    coordinates: [  0.917984216724656,  0.154514541903927,  0.738092406823452 ]
    mass: 6.941000
    reduced_to: 61
  - symbol: Li # 97
    coordinates: [  0.917984216724656,  0.354514541903927,  0.738092406823452 ]
    mass: 6.941000
    reduced_to: 61
  - symbol: Li # 98
    coordinates: [  0.917984216724656,  0.554514541903927,  0.738092406823452 ]
    mass: 6.941000
    reduced_to: 61
  - symbol: Li # 99
    coordinates: [  0.917984216724656,  0.754514541903927,  0.738092406823452 ]
    mass: 6.941000
    reduced_to: 61
  - symbol: Li # 100
    coordinates: [  0.917984216724656,  0.954514541903927,  0.738092406823452 ]
    mass: 6.941000
    reduced_to: 61
  - symbol: Li # 101
    coordinates: [  0.167984216724656,  0.154514541903927,  0.904759073490118 ]
    mass: 6.941000
    reduced_to: 61
  - symbol: Li # 102
    coordinates: [  0.167984216724656,  0.354514541903927,  0.904759073490118 ]
    mass: 6.941000
    reduced_to: 61
  - symbol: Li # 103
    coordinates: [  0.167984216724656,  0.554514541903927,  0.904759073490118 ]
    mass: 6.941000
    reduced_to: 61
  - symbol: Li # 104
    coordinates: [  0.167984216724656,  0.754514541903927,  0.904759073490118 ]
    mass: 6.941000
    reduced_to: 61
  - symbol: Li # 105
    coordinates: [  0.167984216724656,  0.954514541903927,  0.904759073490118 ]
    mass: 6.941000
    reduced_to: 61
  - symbol: Li # 106
    coordinates: [  0.417984216724656,  0.154514541903927,  0.738092406823452 ]
    mass: 6.941000
    reduced_to: 61
  - symbol: Li # 107
    coordinates: [  0.417984216724656,  0.354514541903927,  0.738092406823452 ]
    mass: 6.941000
    reduced_to: 61
  - symbol: Li # 108
    coordinates: [  0.417984216724656,  0.554514541903927,  0.738092406823452 ]
    mass: 6.941000
    reduced_to: 61
  - symbol: Li # 109
    coordinates: [  0.417984216724656,  0.754514541903927,  0.738092406823452 ]
    mass: 6.941000
    reduced_to: 61
  - symbol: Li # 110
    coordinates: [  0.417984216724656,  0.954514541903927,  0.738092406823452 ]
    mass: 6.941000
    reduced_to: 61
  - symbol: Li # 111
    coordinates: [  0.667984216724656,  0.154514541903927,  0.571425740156785 ]
    mass: 6.941000
    reduced_to: 61
  - symbol: Li # 112
    coordinates: [  0.667984216724656,  0.354514541903927,  0.571425740156785 ]
    mass: 6.941000
    reduced_to: 61
  - symbol: Li # 113
    coordinates: [  0.667984216724656,  0.554514541903927,  0.571425740156785 ]
    mass: 6.941000
    reduced_to: 61
  - symbol: Li # 114
    coordinates: [  0.667984216724656,  0.754514541903927,  0.571425740156785 ]
    mass: 6.941000
    reduced_to: 61
  - symbol: Li # 115
    coordinates: [  0.667984216724656,  0.954514541903927,  0.571425740156785 ]
    mass: 6.941000
    reduced_to: 61
  - symbol: Li # 116
    coordinates: [  0.917984216724656,  0.154514541903927,  0.404759073490118 ]
    mass: 6.941000
    reduced_to: 61
  - symbol: Li # 117
    coordinates: [  0.917984216724656,  0.354514541903927,  0.404759073490118 ]
    mass: 6.941000
    reduced_to: 61
  - symbol: Li # 118
    coordinates: [  0.917984216724656,  0.554514541903927,  0.404759073490118 ]
    mass: 6.941000
    reduced_to: 61
  - symbol: Li # 119
    coordinates: [  0.917984216724656,  0.754514541903927,  0.404759073490118 ]
    mass: 6.941000
    reduced_to: 61
  - symbol: Li # 120
    coordinates: [  0.917984216724656,  0.954514541903927,  0.404759073490118 ]
    mass: 6.941000
    reduced_to: 61
  - symbol: Li # 121
    coordinates: [  0.207015783275345,  0.154514541903927,  0.712071362456325 ]
    mass: 6.941000
    reduced_to: 121
  - symbol: Li # 122
    coordinates: [  0.207015783275345,  0.354514541903927,  0.712071362456325 ]
    mass: 6.941000
    reduced_to: 121
  - symbol: Li # 123
    coordinates: [  0.207015783275345,  0.554514541903927,  0.712071362456325 ]
    mass: 6.941000
    reduced_to: 121
  - symbol: Li # 124
    coordinates: [  0.207015783275345,  0.754514541903927,  0.712071362456325 ]
    mass: 6.941000
    reduced_to: 121
  - symbol: Li # 125
    coordinates: [  0.207015783275345,  0.954514541903927,  0.712071362456325 ]
    mass: 6.941000
    reduced_to: 121
  - symbol: Li # 126
    coordinates: [  0.457015783275345,  0.154514541903927,  0.545404695789659 ]
    mass: 6.941000
    reduced_to: 121
  - symbol: Li # 127
    coordinates: [  0.457015783275345,  0.354514541903927,  0.545404695789659 ]
    mass: 6.941000
    reduced_to: 121
  - symbol: Li # 128
    coordinates: [  0.457015783275345,  0.554514541903927,  0.545404695789659 ]
    mass: 6.941000
    reduced_to: 121
  - symbol: Li # 129
    coordinates: [  0.457015783275345,  0.754514541903927,  0.545404695789659 ]
    mass: 6.941000
    reduced_to: 121
  - symbol: Li # 130
    coordinates: [  0.457015783275345,  0.954514541903927,  0.545404695789659 ]
    mass: 6.941000
    reduced_to: 121
  - symbol: Li # 131
    coordinates: [  0.707015783275345,  0.154514541903927,  0.378738029122992 ]
    mass: 6.941000
    reduced_to: 121
  - symbol: Li # 132
    coordinates: [  0.707015783275345,  0.354514541903927,  0.378738029122992 ]
    mass: 6.941000
    reduced_to: 121
  - symbol: Li # 133
    coordinates: [  0.707015783275345,  0.554514541903927,  0.378738029122992 ]
    mass: 6.941000
    reduced_to: 121
  - symbol: Li # 134
    coordinates: [  0.707015783275345,  0.754514541903927,  0.378738029122992 ]
    mass: 6.941000
    reduced_to: 121
  - symbol: Li # 135
    coordinates: [  0.707015783275345,  0.954514541903927,  0.378738029122992 ]
    mass: 6.941000
    reduced_to: 121
  - symbol: Li # 136
    coordinates: [  0.957015783275345,  0.154514541903927,  0.212071362456325 ]
    mass: 6.941000
    reduced_to: 121
  - symbol: Li # 137
    coordinates: [  0.957015783275345,  0.354514541903927,  0.212071362456325 ]
    mass: 6.941000
    reduced_to: 121
  - symbol: Li # 138
    coordinates: [  0.957015783275345,  0.554514541903927,  0.212071362456325 ]
    mass: 6.941000
    reduced_to: 121
  - symbol: Li # 139
    coordinates: [  0.957015783275345,  0.754514541903927,  0.212071362456325 ]
    mass: 6.941000
    reduced_to: 121
  - symbol: Li # 140
    coordinates: [  0.957015783275345,  0.954514541903927,  0.212071362456325 ]
    mass: 6.941000
    reduced_to: 121
  - symbol: Li # 141
    coordinates: [  0.207015783275345,  0.154514541903927,  0.378738029122992 ]
    mass: 6.941000
    reduced_to: 121
  - symbol: Li # 142
    coordinates: [  0.207015783275345,  0.354514541903927,  0.378738029122992 ]
    mass: 6.941000
    reduced_to: 121
  - symbol: Li # 143
    coordinates: [  0.207015783275345,  0.554514541903927,  0.378738029122992 ]
    mass: 6.941000
    reduced_to: 121
  - symbol: Li # 144
    coordinates: [  0.207015783275345,  0.754514541903927,  0.378738029122992 ]
    mass: 6.941000
    reduced_to: 121
  - symbol: Li # 145
    coordinates: [  0.207015783275345,  0.954514541903927,  0.378738029122992 ]
    mass: 6.941000
    reduced_to: 121
  - symbol: Li # 146
    coordinates: [  0.457015783275345,  0.154514541903927,  0.212071362456325 ]
    mass: 6.941000
    reduced_to: 121
  - symbol: Li # 147
    coordinates: [  0.457015783275345,  0.354514541903927,  0.212071362456325 ]
    mass: 6.941000
    reduced_to: 121
  - symbol: Li # 148
    coordinates: [  0.457015783275345,  0.554514541903927,  0.212071362456325 ]
    mass: 6.941000
    reduced_to: 121
  - symbol: Li # 149
    coordinates: [  0.457015783275345,  0.754514541903927,  0.212071362456325 ]
    mass: 6.941000
    reduced_to: 121
  - symbol: Li # 150
    coordinates: [  0.457015783275345,  0.954514541903927,  0.212071362456325 ]
    mass: 6.941000
    reduced_to: 121
  - symbol: Li # 151
    coordinates: [  0.707015783275345,  0.154514541903927,  0.045404695789659 ]
    mass: 6.941000
    reduced_to: 121
  - symbol: Li # 152
    coordinates: [  0.707015783275345,  0.354514541903927,  0.045404695789659 ]
    mass: 6.941000
    reduced_to: 121
  - symbol: Li # 153
    coordinates: [  0.707015783275345,  0.554514541903927,  0.045404695789659 ]
    mass: 6.941000
    reduced_to: 121
  - symbol: Li # 154
    coordinates: [  0.707015783275345,  0.754514541903927,  0.045404695789659 ]
    mass: 6.941000
    reduced_to: 121
  - symbol: Li # 155
    coordinates: [  0.707015783275345,  0.954514541903927,  0.045404695789659 ]
    mass: 6.941000
    reduced_to: 121
  - symbol: Li # 156
    coordinates: [  0.957015783275345,  0.154514541903927,  0.878738029122992 ]
    mass: 6.941000
    reduced_to: 121
  - symbol: Li # 157
    coordinates: [  0.957015783275345,  0.354514541903927,  0.878738029122992 ]
    mass: 6.941000
    reduced_to: 121
  - symbol: Li # 158
    coordinates: [  0.957015783275345,  0.554514541903927,  0.878738029122992 ]
    mass: 6.941000
    reduced_to: 121
  - symbol: Li # 159
    coordinates: [  0.957015783275345,  0.754514541903927,  0.878738029122992 ]
    mass: 6.941000
    reduced_to: 121
  - symbol: Li # 160
    coordinates: [  0.957015783275345,  0.954514541903927,  0.878738029122992 ]
    mass: 6.941000
    reduced_to: 121
  - symbol: Li # 161
    coordinates: [  0.207015783275345,  0.154514541903927,  0.045404695789659 ]
    mass: 6.941000
    reduced_to: 121
  - symbol: Li # 162
    coordinates: [  0.207015783275345,  0.354514541903927,  0.045404695789659 ]
    mass: 6.941000
    reduced_to: 121
  - symbol: Li # 163
    coordinates: [  0.207015783275345,  0.554514541903927,  0.045404695789659 ]
    mass: 6.941000
    reduced_to: 121
  - symbol: Li # 164
    coordinates: [  0.207015783275345,  0.754514541903927,  0.045404695789659 ]
    mass: 6.941000
    reduced_to: 121
  - symbol: Li # 165
    coordinates: [  0.207015783275345,  0.954514541903927,  0.045404695789659 ]
    mass: 6.941000
    reduced_to: 121
  - symbol: Li # 166
    coordinates: [  0.457015783275345,  0.154514541903927,  0.878738029122992 ]
    mass: 6.941000
    reduced_to: 121
  - symbol: Li # 167
    coordinates: [  0.457015783275345,  0.354514541903927,  0.878738029122992 ]
    mass: 6.941000
    reduced_to: 121
  - symbol: Li # 168
    coordinates: [  0.457015783275345,  0.554514541903927,  0.878738029122992 ]
    mass: 6.941000
    reduced_to: 121
  - symbol: Li # 169
    coordinates: [  0.457015783275345,  0.754514541903927,  0.878738029122992 ]
    mass: 6.941000
    reduced_to: 121
  - symbol: Li # 170
    coordinates: [  0.457015783275345,  0.954514541903927,  0.878738029122992 ]
    mass: 6.941000
    reduced_to: 121
  - symbol: Li # 171
    coordinates: [  0.707015783275345,  0.154514541903927,  0.712071362456325 ]
    mass: 6.941000
    reduced_to: 121
  - symbol: Li # 172
    coordinates: [  0.707015783275345,  0.354514541903927,  0.712071362456325 ]
    mass: 6.941000
    reduced_to: 121
  - symbol: Li # 173
    coordinates: [  0.707015783275345,  0.554514541903927,  0.712071362456325 ]
    mass: 6.941000
    reduced_to: 121
  - symbol: Li # 174
    coordinates: [  0.707015783275345,  0.754514541903927,  0.712071362456325 ]
    mass: 6.941000
    reduced_to: 121
  - symbol: Li # 175
    coordinates: [  0.707015783275345,  0.954514541903927,  0.712071362456325 ]
    mass: 6.941000
    reduced_to: 121
  - symbol: Li # 176
    coordinates: [  0.957015783275345,  0.154514541903927,  0.545404695789659 ]