phonopy:
  version: "2.21.0"
  frequency_unit_conversion_factor: 15.633302
  symmetry_tolerance: 1.00000e-04

space_group:
  type: "P-3m1"
  number: 164
  Hall_symbol: "-P 3 2\""

primitive_matrix:
- [  1.000000000000000, -0.000000000000000,  0.000000000000000 ]
- [ -0.000000000000000,  1.000000000000000,  0.000000000000000 ]
- [  0.000000000000000,  0.000000000000000,  1.000000000000000 ]

supercell_matrix:
- [   5,   5,   0 ]
- [  -3,   3,   0 ]
- [   0,   0,   3 ]

primitive_cell:
  lattice:
  - [     2.299640476829394,    -3.983094145010431,     0.000000000000000 ] # a
  - [     2.299640476829394,     3.983094145010430,     0.000000000000000 ] # b
  - [     0.000000000000000,     0.000000000000000,     7.273017109463184 ] # c
  points:
  - symbol: Mg # 1
    coordinates: [  0.000000000000000,  0.000000000000000,  0.000000000000000 ]
    mass: 24.305000
  - symbol: Mg # 2
    coordinates: [  0.333333333333335,  0.666666666666665,  0.367920306815802 ]
    mass: 24.305000
  - symbol: Mg # 3
    coordinates: [  0.666666666666664,  0.333333333333336,  0.632079693184205 ]
    mass: 24.305000
  - symbol: Sb # 4
    coordinates: [  0.333333333333335,  0.666666666666665,  0.774737162131692 ]
    mass: 121.760000
  - symbol: Sb # 5
    coordinates: [  0.666666666666664,  0.333333333333336,  0.225262837868308 ]
    mass: 121.760000
  reciprocal_lattice: # without 2pi
  - [     0.217425291056526,    -0.125530550320118,     0.000000000000000 ] # a*
  - [     0.217425291056526,     0.125530550320118,     0.000000000000000 ] # b*
  - [     0.000000000000000,     0.000000000000000,     0.137494520492584 ] # c*

unit_cell:
  lattice:
  - [     2.299640476829394,    -3.983094145010430,     0.000000000000000 ] # a
  - [     2.299640476829394,     3.983094145010430,    -0.000000000000000 ] # b
  - [     0.000000000000000,    -0.000000000000000,     7.273017109463185 ] # c
  points:
  - symbol: Mg # 1
    coordinates: [  0.000000000000000, -0.000000000000000, -0.000000000000000 ]
    mass: 24.305000
    reduced_to: 1
  - symbol: Mg # 2
    coordinates: [  0.333333333333336,  0.666666666666664,  0.367920306815802 ]
    mass: 24.305000
    reduced_to: 2
  - symbol: Mg # 3
    coordinates: [  0.666666666666664,  0.333333333333336,  0.632079693184205 ]
    mass: 24.305000
    reduced_to: 3
  - symbol: Sb # 4
    coordinates: [  0.333333333333336,  0.666666666666664,  0.774737162131692 ]
    mass: 121.760000
    reduced_to: 4
  - symbol: Sb # 5
    coordinates: [  0.666666666666664,  0.333333333333336,  0.225262837868308 ]
    mass: 121.760000
    reduced_to: 5

supercell:
  lattice:
  - [     4.599280953658788,   -31.864753160083445,     0.000000000000000 ] # a
  - [    18.397123814635155,    -7.966188290020861,     0.000000000000000 ] # b
  - [     0.000000000000000,     0.000000000000000,    21.819051328389556 ] # c
  points:
  - symbol: Mg # 1
    coordinates: [  0.000000000000000,  0.000000000000000,  0.000000000000000 ]
    mass: 24.305000
    reduced_to: 1
  - symbol: Mg # 2
    coordinates: [  0.100000000000000,  0.100000000000000,  0.000000000000000 ]
    mass: 24.305000
    reduced_to: 1
  - symbol: Mg # 3
    coordinates: [  0.200000000000000,  0.200000000000000,  0.000000000000000 ]
    mass: 24.305000
    reduced_to: 1
  - symbol: Mg # 4
    coordinates: [  0.300000000000000,  0.300000000000000,  0.000000000000000 ]
    mass: 24.305000
    reduced_to: 1
  - symbol: Mg # 5
    coordinates: [  0.400000000000000,  0.400000000000000,  0.000000000000000 ]
    mass: 24.305000
    reduced_to: 1
  - symbol: Mg # 6
    coordinates: [  0.500000000000000,  0.500000000000000,  0.000000000000000 ]
    mass: 24.305000
    reduced_to: 1
  - symbol: Mg # 7
    coordinates: [  0.600000000000000,  0.600000000000000,  0.000000000000000 ]
    mass: 24.305000
    reduced_to: 1
  - symbol: Mg # 8
    coordinates: [  0.700000000000000,  0.700000000000000,  0.000000000000000 ]
    mass: 24.305000
    reduced_to: 1
  - symbol: Mg # 9
    coordinates: [  0.800000000000000,  0.800000000000000,  0.000000000000000 ]
    mass: 24.305000
    reduced_to: 1
  - symbol: Mg # 10
    coordinates: [  0.900000000000000,  0.900000000000000,  0.000000000000000 ]
    mass: 24.305000
    reduced_to: 1
  - symbol: Mg # 11
    coordinates: [  0.833333333333333,  0.166666666666667,  0.000000000000000 ]
    mass: 24.305000
    reduced_to: 1
  - symbol: Mg # 12
    coordinates: [  0.933333333333333,  0.266666666666667,  0.000000000000000 ]
    mass: 24.305000
    reduced_to: 1
  - symbol: Mg # 13
    coordinates: [  0.033333333333333,  0.366666666666667,  0.000000000000000 ]
    mass: 24.305000
    reduced_to: 1
  - symbol: Mg # 14
    coordinates: [  0.133333333333333,  0.466666666666667,  0.000000000000000 ]
    mass: 24.305000
    reduced_to: 1
  - symbol: Mg # 15
    coordinates: [  0.233333333333333,  0.566666666666667,  0.000000000000000 ]
    mass: 24.305000
    reduced_to: 1
  - symbol: Mg # 16
    coordinates: [  0.333333333333333,  0.666666666666667,  0.000000000000000 ]
    mass: 24.305000
    reduced_to: 1
  - symbol: Mg # 17
    coordinates: [  0.433333333333333,  0.766666666666667,  0.000000000000000 ]
    mass: 24.305000
    reduced_to: 1
  - symbol: Mg # 18
    coordinates: [  0.533333333333333,  0.866666666666667,  0.000000000000000 ]
    mass: 24.305000
    reduced_to: 1
  - symbol: Mg # 19
    coordinates: [  0.633333333333333,  0.966666666666667,  0.000000000000000 ]
    mass: 24.305000
    reduced_to: 1
  - symbol: Mg # 20
    coordinates: [  0.733333333333333,  0.066666666666667,  0.000000000000000 ]
    mass: 24.305000
    reduced_to: 1
  - symbol: Mg # 21
    coordinates: [  0.666666666666667,  0.333333333333333,  0.000000000000000 ]
    mass: 24.305000
    reduced_to: 1
  - symbol: Mg # 22
    coordinates: [  0.766666666666667,  0.433333333333333,  0.000000000000000 ]
    mass: 24.305000
    reduced_to: 1
  - symbol: Mg # 23
    coordinates: [  0.866666666666667,  0.533333333333333,  0.000000000000000 ]
    mass: 24.305000
    reduced_to: 1
  - symbol: Mg # 24
    coordinates: [  0.966666666666667,  0.633333333333333,  0.000000000000000 ]
    mass: 24.305000
    reduced_to: 1
  - symbol: Mg # 25
    coordinates: [  0.066666666666667,  0.733333333333333,  0.000000000000000 ]
    mass: 24.305000
    reduced_to: 1
  - symbol: Mg # 26
    coordinates: [  0.166666666666667,  0.833333333333333,  0.000000000000000 ]
    mass: 24.305000
    reduced_to: 1
  - symbol: Mg # 27
    coordinates: [  0.266666666666667,  0.933333333333333,  0.000000000000000 ]
    mass: 24.305000
    reduced_to: 1
  - symbol: Mg # 28
    coordinates: [  0.366666666666667,  0.033333333333333,  0.000000000000000 ]
    mass: 24.305000
    reduced_to: 1
  - symbol: Mg # 29
    coordinates: [  0.466666666666667,  0.133333333333333,  0.000000000000000 ]
    mass: 24.305000
    reduced_to: 1
  - symbol: Mg # 30
    coordinates: [  0.566666666666667,  0.233333333333333,  0.000000000000000 ]
    mass: 24.305000
    reduced_to: 1
  - symbol: Mg # 31
    coordinates: [  0.000000000000000,  0.000000000000000,  0.333333333333333 ]
    mass: 24.305000
    reduced_to: 1
  - symbol: Mg # 32
    coordinates: [  0.100000000000000,  0.100000000000000,  0.333333333333333 ]
    mass: 24.305000
    reduced_to: 1
  - symbol: Mg # 33
    coordinates: [  0.200000000000000,  0.200000000000000,  0.333333333333333 ]
    mass: 24.305000
    reduced_to: 1
  - symbol: Mg # 34
    coordinates: [  0.300000000000000,  0.300000000000000,  0.333333333333333 ]
    mass: 24.305000
    reduced_to: 1
  - symbol: Mg # 35
    coordinates: [  0.400000000000000,  0.400000000000000,  0.333333333333333 ]
    mass: 24.305000
    reduced_to: 1
  - symbol: Mg # 36
    coordinates: [  0.500000000000000,  0.500000000000000,  0.333333333333333 ]
    mass: 24.305000
    reduced_to: 1
  - symbol: Mg # 37
    coordinates: [  0.600000000000000,  0.600000000000000,  0.333333333333333 ]
    mass: 24.305000
    reduced_to: 1
  - symbol: Mg # 38
    coordinates: [  0.700000000000000,  0.700000000000000,  0.333333333333333 ]
    mass: 24.305000
    reduced_to: 1
  - symbol: Mg # 39
    coordinates: [  0.800000000000000,  0.800000000000000,  0.333333333333333 ]
    mass: 24.305000
    reduced_to: 1
  - symbol: Mg # 40
    coordinates: [  0.900000000000000,  0.900000000000000,  0.333333333333333 ]
    mass: 24.305000
    reduced_to: 1
  - symbol: Mg # 41
    coordinates: [  0.833333333333333,  0.166666666666667,  0.333333333333333 ]
    mass: 24.305000
    reduced_to: 1
  - symbol: Mg # 42
    coordinates: [  0.933333333333333,  0.266666666666667,  0.333333333333333 ]
    mass: 24.305000
    reduced_to: 1
  - symbol: Mg # 43
    coordinates: [  0.033333333333333,  0.366666666666667,  0.333333333333333 ]
    mass: 24.305000
    reduced_to: 1
  - symbol: Mg # 44
    coordinates: [  0.133333333333333,  0.466666666666667,  0.333333333333333 ]
    mass: 24.305000
    reduced_to: 1
  - symbol: Mg # 45
    coordinates: [  0.233333333333333,  0.566666666666667,  0.333333333333333 ]
    mass: 24.305000
    reduced_to: 1
  - symbol: Mg # 46
    coordinates: [  0.333333333333333,  0.666666666666667,  0.333333333333333 ]
    mass: 24.305000
    reduced_to: 1
  - symbol: Mg # 47
    coordinates: [  0.433333333333333,  0.766666666666667,  0.333333333333333 ]
    mass: 24.305000
    reduced_to: 1
  - symbol: Mg # 48
    coordinates: [  0.533333333333333,  0.866666666666667,  0.333333333333333 ]
    mass: 24.305000
    reduced_to: 1
  - symbol: Mg # 49
    coordinates: [  0.633333333333333,  0.966666666666667,  0.333333333333333 ]
    mass: 24.305000
    reduced_to: 1
  - symbol: Mg # 50
    coordinates: [  0.733333333333333,  0.066666666666667,  0.333333333333333 ]
    mass: 24.305000
    reduced_to: 1
  - symbol: Mg # 51
    coordinates: [  0.666666666666667,  0.333333333333333,  0.333333333333333 ]
    mass: 24.305000
    reduced_to: 1
  - symbol: Mg # 52
    coordinates: [  0.766666666666667,  0.433333333333333,  0.333333333333333 ]
    mass: 24.305000
    reduced_to: 1
  - symbol: Mg # 53
    coordinates: [  0.866666666666667,  0.533333333333333,  0.333333333333333 ]
    mass: 24.305000
    reduced_to: 1
  - symbol: Mg # 54
    coordinates: [  0.966666666666667,  0.633333333333333,  0.333333333333333 ]
    mass: 24.305000
    reduced_to: 1
  - symbol: Mg # 55
    coordinates: [  0.066666666666667,  0.733333333333333,  0.333333333333333 ]
    mass: 24.305000
    reduced_to: 1
  - symbol: Mg # 56
    coordinates: [  0.166666666666667,  0.833333333333333,  0.333333333333333 ]
    mass: 24.305000
    reduced_to: 1
  - symbol: Mg # 57
    coordinates: [  0.266666666666667,  0.933333333333333,  0.333333333333333 ]
    mass: 24.305000
    reduced_to: 1
  - symbol: Mg # 58
    coordinates: [  0.366666666666667,  0.033333333333333,  0.333333333333333 ]
    mass: 24.305000
    reduced_to: 1
  - symbol: Mg # 59
    coordinates: [  0.466666666666667,  0.133333333333333,  0.333333333333333 ]
    mass: 24.305000
    reduced_to: 1
  - symbol: Mg # 60
    coordinates: [  0.566666666666667,  0.233333333333333,  0.333333333333333 ]
    mass: 24.305000
    reduced_to: 1
  - symbol: Mg # 61
    coordinates: [  0.000000000000000,  0.000000000000000,  0.666666666666667 ]
    mass: 24.305000
    reduced_to: 1
  - symbol: Mg # 62
    coordinates: [  0.100000000000000,  0.100000000000000,  0.666666666666667 ]
    mass: 24.305000
    reduced_to: 1
  - symbol: Mg # 63
    coordinates: [  0.200000000000000,  0.200000000000000,  0.666666666666667 ]
    mass: 24.305000
    reduced_to: 1
  - symbol: Mg # 64
    coordinates: [  0.300000000000000,  0.300000000000000,  0.666666666666667 ]
    mass: 24.305000
    reduced_to: 1
  - symbol: Mg # 65
    coordinates: [  0.400000000000000,  0.400000000000000,  0.666666666666667 ]
    mass: 24.305000
    reduced_to: 1
  - symbol: Mg # 66
    coordinates: [  0.500000000000000,  0.500000000000000,  0.666666666666667 ]
    mass: 24.305000
    reduced_to: 1
  - symbol: Mg # 67
    coordinates: [  0.600000000000000,  0.600000000000000,  0.666666666666667 ]
    mass: 24.305000
    reduced_to: 1
  - symbol: Mg # 68
    coordinates: [  0.700000000000000,  0.700000000000000,  0.666666666666667 ]
    mass: 24.305000
    reduced_to: 1
  - symbol: Mg # 69
    coordinates: [  0.800000000000000,  0.800000000000000,  0.666666666666667 ]
    mass: 24.305000
    reduced_to: 1
  - symbol: Mg # 70
    coordinates: [  0.900000000000000,  0.900000000000000,  0.666666666666667 ]
    mass: 24.305000
    reduced_to: 1
  - symbol: Mg # 71
    coordinates: [  0.833333333333333,  0.166666666666667,  0.666666666666667 ]
    mass: 24.305000
    reduced_to: 1
  - symbol: Mg # 72
    coordinates: [  0.933333333333333,  0.266666666666667,  0.666666666666667 ]
    mass: 24.305000
    reduced_to: 1
  - symbol: Mg # 73
    coordinates: [  0.033333333333333,  0.366666666666667,  0.666666666666667 ]
    mass: 24.305000
    reduced_to: 1
  - symbol: Mg # 74
    coordinates: [  0.133333333333333,  0.466666666666667,  0.666666666666667 ]
    mass: 24.305000
    reduced_to: 1
  - symbol: Mg # 75
    coordinates: [  0.233333333333333,  0.566666666666667,  0.666666666666667 ]
    mass: 24.305000
    reduced_to: 1
  - symbol: Mg # 76
    coordinates: [  0.333333333333333,  0.666666666666667,  0.666666666666667 ]
    mass: 24.305000
    reduced_to: 1
  - symbol: Mg # 77
    coordinates: [  0.433333333333333,  0.766666666666667,  0.666666666666667 ]
    mass: 24.305000
    reduced_to: 1
  - symbol: Mg # 78
    coordinates: [  0.533333333333333,  0.866666666666667,  0.666666666666667 ]
    mass: 24.305000
    reduced_to: 1
  - symbol: Mg # 79
    coordinates: [  0.633333333333333,  0.966666666666667,  0.666666666666667 ]
    mass: 24.305000
    reduced_to: 1
  - symbol: Mg # 80
    coordinates: [  0.733333333333333,  0.066666666666667,  0.666666666666667 ]
    mass: 24.305000
    reduced_to: 1
  - symbol: Mg # 81
    coordinates: [  0.666666666666667,  0.333333333333333,  0.666666666666667 ]
    mass: 24.305000
    reduced_to: 1
  - symbol: Mg # 82
    coordinates: [  0.766666666666667,  0.433333333333333,  0.666666666666667 ]
    mass: 24.305000
    reduced_to: 1
  - symbol: Mg # 83
    coordinates: [  0.866666666666667,  0.533333333333333,  0.666666666666667 ]
    mass: 24.305000
    reduced_to: 1
  - symbol: Mg # 84
    coordinates: [  0.966666666666667,  0.633333333333333,  0.666666666666667 ]
    mass: 24.305000
    reduced_to: 1
  - symbol: Mg # 85
    coordinates: [  0.066666666666667,  0.733333333333333,  0.666666666666667 ]
    mass: 24.305000
    reduced_to: 1
  - symbol: Mg # 86
    coordinates: [  0.166666666666667,  0.833333333333333,  0.666666666666667 ]
    mass: 24.305000
    reduced_to: 1
  - symbol: Mg # 87
    coordinates: [  0.266666666666667,  0.933333333333333,  0.666666666666667 ]
    mass: 24.305000
    reduced_to: 1
  - symbol: Mg # 88
    coordinates: [  0.366666666666667,  0.033333333333333,  0.666666666666667 ]
    mass: 24.305000
    reduced_to: 1
  - symbol: Mg # 89
    coordinates: [  0.466666666666667,  0.133333333333333,  0.666666666666667 ]
    mass: 24.305000
    reduced_to: 1
  - symbol: Mg # 90
    coordinates: [  0.566666666666667,  0.233333333333333,  0.666666666666667 ]
    mass: 24.305000
    reduced_to: 1
  - symbol: Mg # 91
    coordinates: [  0.922222222222223,  0.144444444444444,  0.122640102271934 ]
    mass: 24.305000
    reduced_to: 91
  - symbol: Mg # 92
    coordinates: [  0.022222222222223,  0.244444444444444,  0.122640102271934 ]
    mass: 24.305000
    reduced_to: 91
  - symbol: Mg # 93
    coordinates: [  0.122222222222223,  0.344444444444444,  0.122640102271934 ]
    mass: 24.305000
    reduced_to: 91
  - symbol: Mg # 94
    coordinates: [  0.222222222222223,  0.444444444444444,  0.122640102271934 ]
    mass: 24.305000
    reduced_to: 91
  - symbol: Mg # 95
    coordinates: [  0.322222222222223,  0.544444444444444,  0.122640102271934 ]
    mass: 24.305000
    reduced_to: 91
  - symbol: Mg # 96
    coordinates: [  0.422222222222223,  0.644444444444444,  0.122640102271934 ]
    mass: 24.305000
    reduced_to: 91
  - symbol: Mg # 97
    coordinates: [  0.522222222222223,  0.744444444444444,  0.122640102271934 ]
    mass: 24.305000
    reduced_to: 91
  - symbol: Mg # 98
    coordinates: [  0.622222222222223,  0.844444444444444,  0.122640102271934 ]
    mass: 24.305000
    reduced_to: 91
  - symbol: Mg # 99
    coordinates: [  0.722222222222223,  0.944444444444444,  0.122640102271934 ]
    mass: 24.305000
    reduced_to: 91
  - symbol: Mg # 100
    coordinates: [  0.822222222222223,  0.044444444444444,  0.122640102271934 ]
    mass: 24.305000
    reduced_to: 91
  - symbol: Mg # 101
    coordinates: [  0.755555555555556,  0.311111111111111,  0.122640102271934 ]
    mass: 24.305000
    reduced_to: 91
  - symbol: Mg # 102
    coordinates: [  0.855555555555556,  0.411111111111111,  0.122640102271934 ]
    mass: 24.305000
    reduced_to: 91
  - symbol: Mg # 103
    coordinates: [  0.955555555555556,  0.511111111111111,  0.122640102271934 ]
    mass: 24.305000
    reduced_to: 91
  - symbol: Mg # 104
    coordinates: [  0.055555555555556,  0.611111111111111,  0.122640102271934 ]
    mass: 24.305000
    reduced_to: 91
  - symbol: Mg # 105
    coordinates: [  0.155555555555556,  0.711111111111111,  0.122640102271934 ]
    mass: 24.305000
    reduced_to: 91
  - symbol: Mg # 106
    coordinates: [  0.255555555555556,  0.811111111111111,  0.122640102271934 ]
    mass: 24.305000
    reduced_to: 91
  - symbol: Mg # 107
    coordinates: [  0.355555555555556,  0.911111111111111,  0.122640102271934 ]
    mass: 24.305000
    reduced_to: 91
  - symbol: Mg # 108
    coordinates: [  0.455555555555556,  0.011111111111111,  0.122640102271934 ]
    mass: 24.305000
    reduced_to: 91
  - symbol: Mg # 109
    coordinates: [  0.555555555555556,  0.111111111111111,  0.122640102271934 ]
    mass: 24.305000
    reduced_to: 91
  - symbol: Mg # 110
    coordinates: [  0.655555555555556,  0.211111111111111,  0.122640102271934 ]
    mass: 24.305000
    reduced_to: 91
  - symbol: Mg # 111
    coordinates: [  0.588888888888889,  0.477777777777778,  0.122640102271934 ]
    mass: 24.305000
    reduced_to: 91
  - symbol: Mg # 112
    coordinates: [  0.688888888888890,  0.577777777777778,  0.122640102271934 ]
    mass: 24.305000
    reduced_to: 91
  - symbol: Mg # 113
    coordinates: [  0.788888888888890,  0.677777777777778,  0.122640102271934 ]
    mass: 24.305000
    reduced_to: 91
  - symbol: Mg # 114
    coordinates: [  0.888888888888890,  0.777777777777778,  0.122640102271934 ]
    mass: 24.305000
    reduced_to: 91
  - symbol: Mg # 115
    coordinates: [  0.988888888888890,  0.877777777777778,  0.122640102271934 ]
    mass: 24.305000
    reduced_to: 91
  - symbol: Mg # 116
    coordinates: [  0.088888888888890,  0.977777777777778,  0.122640102271934 ]
    mass: 24.305000
    reduced_to: 91
  - symbol: Mg # 117
    coordinates: [  0.188888888888890,  0.077777777777778,  0.122640102271934 ]
    mass: 24.305000
    reduced_to: 91
  - symbol: Mg # 118
    coordinates: [  0.288888888888890,  0.177777777777778,  0.122640102271934 ]
    mass: 24.305000
    reduced_to: 91
  - symbol: Mg # 119
    coordinates: [  0.388888888888890,  0.277777777777778,  0.122640102271934 ]
    mass: 24.305000
    reduced_to: 91
  - symbol: Mg # 120
    coordinates: [  0.488888888888890,  0.377777777777778,  0.122640102271934 ]
    mass: 24.305000
    reduced_to: 91
  - symbol: Mg # 121
    coordinates: [  0.922222222222223,  0.144444444444444,  0.455973435605267 ]
    mass: 24.305000
    reduced_to: 91
  - symbol: Mg # 122
    coordinates: [  0.022222222222223,  0.244444444444444,  0.455973435605267 ]
    mass: 24.305000
    reduced_to: 91
  - symbol: Mg # 123
    coordinates: [  0.122222222222223,  0.344444444444444,  0.455973435605267 ]
    mass: 24.305000
    reduced_to: 91
  - symbol: Mg # 124
    coordinates: [  0.222222222222223,  0.444444444444444,  0.455973435605267 ]
    mass: 24.305000
    reduced_to: 91
  - symbol: Mg # 125
    coordinates: [  0.322222222222223,  0.544444444444444,  0.455973435605267 ]
    mass: 24.305000
    reduced_to: 91
  - symbol: Mg # 126
    coordinates: [  0.422222222222223,  0.644444444444444,  0.455973435605267 ]
    mass: 24.305000
    reduced_to: 91
  - symbol: Mg # 127
    coordinates: [  0.522222222222223,  0.744444444444444,  0.455973435605267 ]
    mass: 24.305000
    reduced_to: 91
  - symbol: Mg # 128
    coordinates: [  0.622222222222223,  0.844444444444444,  0.455973435605267 ]
    mass: 24.305000
    reduced_to: 91
  - symbol: Mg # 129
    coordinates: [  0.722222222222223,  0.944444444444444,  0.455973435605267 ]
    mass: 24.305000
    reduced_to: 91
  - symbol: Mg # 130
    coordinates: [  0.822222222222223,  0.044444444444444,  0.455973435605267 ]
    mass: 24.305000
    reduced_to: 91
  - symbol: Mg # 131
    coordinates: [  0.755555555555556,  0.311111111111111,  0.455973435605267 ]
    mass: 24.305000
    reduced_to: 91
  - symbol: Mg # 132
    coordinates: [  0.855555555555556,  0.411111111111111,  0.455973435605267 ]
    mass: 24.305000
    reduced_to: 91
  - symbol: Mg # 133
    coordinates: [  0.955555555555556,  0.511111111111111,  0.455973435605267 ]
    mass: 24.305000
    reduced_to: 91
  - symbol: Mg # 134
    coordinates: [  0.055555555555556,  0.611111111111111,  0.455973435605267 ]
    mass: 24.305000
    reduced_to: 91
  - symbol: Mg # 135
    coordinates: [  0.155555555555556,  0.711111111111111,  0.455973435605267 ]
    mass: 24.305000
    reduced_to: 91
  - symbol: Mg # 136
    coordinates: [  0.255555555555556,  0.811111111111111,  0.455973435605267 ]
    mass: 24.305000
    reduced_to: 91
  - symbol: Mg # 137
    coordinates: [  0.355555555555556,  0.911111111111111,  0.455973435605267 ]
    mass: 24.305000
    reduced_to: 91
  - symbol: Mg # 138
    coordinates: [  0.455555555555556,  0.011111111111111,  0.455973435605267 ]
    mass: 24.305000
    reduced_to: 91
  - symbol: Mg # 139
    coordinates: [  0.555555555555556,  0.111111111111111,  0.455973435605267 ]
    mass: 24.305000
    reduced_to: 91
  - symbol: Mg # 140
    coordinates: [  0.655555555555556,  0.211111111111111,  0.455973435605267 ]
    mass: 24.305000
    reduced_to: 91
  - symbol: Mg # 141
    coordinates: [  0.588888888888889,  0.477777777777778,  0.455973435605267 ]
    mass: 24.305000
    reduced_to: 91
  - symbol: Mg # 142
    coordinates: [  0.688888888888890,  0.577777777777778,  0.455973435605267 ]
    mass: 24.305000
    reduced_to: 91
  - symbol: Mg # 143
    coordinates: [  0.788888888888890,  0.677777777777778,  0.455973435605267 ]
    mass: 24.305000
    reduced_to: 91
  - symbol: Mg # 144
    coordinates: [  0.888888888888890,  0.777777777777778,  0.455973435605267 ]
    mass: 24.305000
    reduced_to: 91
  - symbol: Mg # 145
    coordinates: [  0.988888888888890,  0.877777777777778,  0.455973435605267 ]
    mass: 24.305000
    reduced_to: 91
  - symbol: Mg # 146
    coordinates: [  0.088888888888890,  0.977777777777778,  0.455973435605267 ]
    mass: 24.305000
    reduced_to: 91
  - symbol: Mg # 147
    coordinates: [  0.188888888888890,  0.077777777777778,  0.455973435605267 ]
    mass: 24.305000
    reduced_to: 91
  - symbol: Mg # 148
    coordinates: [  0.288888888888890,  0.177777777777778,  0.455973435605267 ]
    mass: 24.305000
    reduced_to: 91
  - symbol: Mg # 149
    coordinates: [  0.388888888888890,  0.277777777777778,  0.455973435605267 ]
    mass: 24.305000
    reduced_to: 91
  - symbol: Mg # 150
    coordinates: [  0.488888888888890,  0.377777777777778,  0.455973435605267 ]
    mass: 24.305000
    reduced_to: 91
  - symbol: Mg # 151
    coordinates: [  0.922222222222223,  0.144444444444444,  0.789306768938601 ]
    mass: 24.305000
    reduced_to: 91
  - symbol: Mg # 152
    coordinates: [  0.022222222222223,  0.244444444444444,  0.789306768938601 ]
    mass: 24.305000
    reduced_to: 91
  - symbol: Mg # 153
    coordinates: [  0.122222222222223,  0.344444444444444,  0.789306768938601 ]
    mass: 24.305000
    reduced_to: 91
  - symbol: Mg # 154
    coordinates: [  0.222222222222223,  0.444444444444444,  0.789306768938601 ]
    mass: 24.305000
    reduced_to: 91
  - symbol: Mg # 155
    coordinates: [  0.322222222222223,  0.544444444444444,  0.789306768938601 ]
    mass: 24.305000
    reduced_to: 91
  - symbol: Mg # 156
    coordinates: [  0.422222222222223,  0.644444444444444,  0.789306768938601 ]
    mass: 24.305000
    reduced_to: 91
  - symbol: Mg # 157
    coordinates: [  0.522222222222223,  0.744444444444444,  0.789306768938601 ]
    mass: 24.305000
    reduced_to: 91
  - symbol: Mg # 158
    coordinates: [  0.622222222222223,  0.844444444444444,  0.789306768938601 ]
    mass: 24.305000
    reduced_to: 91
  - symbol: Mg # 159
    coordinates: [  0.722222222222223,  0.944444444444444,  0.789306768938601 ]
    mass: 24.305000
    reduced_to: 91
  - symbol: Mg # 160
    coordinates: [  0.822222222222223,  0.044444444444444,  0.789306768938601 ]
    mass: 24.305000
    reduced_to: 91
  - symbol: Mg # 161
    coordinates: [  0.755555555555556,  0.311111111111111,  0.789306768938601 ]
    mass: 24.305000
    reduced_to: 91
  - symbol: Mg # 162
    coordinates: [  0.855555555555556,  0.411111111111111,  0.789306768938601 ]
    mass: 24.305000
    reduced_to: 91
  - symbol: Mg # 163
    coordinates: [  0.955555555555556,  0.511111111111111,  0.789306768938601 ]
    mass: 24.305000
    reduced_to: 91
  - symbol: Mg # 164
    coordinates: [  0.055555555555556,  0.611111111111111,  0.789306768938601 ]
    mass: 24.305000
    reduced_to: 91
  - symbol: Mg # 165
    coordinates: [  0.155555555555556,  0.711111111111111,  0.789306768938601 ]
    mass: 24.305000
    reduced_to: 91
  - symbol: Mg # 166
    coordinates: [  0.255555555555556,  0.811111111111111,  0.789306768938601 ]
    mass: 24.305000
    reduced_to: 91
  - symbol: Mg # 167
    coordinates: [  0.355555555555556,  0.911111111111111,  0.789306768938601 ]
    mass: 24.305000
    reduced_to: 91
  - symbol: Mg # 168
    coordinates: [  0.455555555555556,  0.011111111111111,  0.789306768938601 ]
    mass: 24.305000
    reduced_to: 91
  - symbol: Mg # 169
    coordinates: [  0.555555555555556,  0.111111111111111,  0.789306768938601 ]
    mass: 24.305000
    reduced_to: 91
  - symbol: Mg # 170
    coordinates: [  0.655555555555556,  0.211111111111111,  0.789306768938601 ]
    mass: 24.305000
    reduced_to: 91
  - symbol: Mg # 171
    coordinates: [  0.588888888888889,  0.477777777777778,  0.789306768938601 ]
    mass: 24.305000
    reduced_to: 91
  - symbol: Mg # 172
    coordinates: [  0.688888888888890,  0.577777777777778,  0.789306768938601 ]
    mass: 24.305000
    reduced_to: 91
  - symbol: Mg # 173
    coordinates: [  0.788888888888890,  0.677777777777778,  0.789306768938601 ]
    mass: 24.305000
    reduced_to: 91
  - symbol: Mg # 174
    coordinates: [  0.888888888888890,  0.777777777777778,  0.789306768938601 ]
    mass: 24.305000
    reduced_to: 91
  - symbol: Mg # 175
    coordinates: [  0.988888888888890,  0.877777777777778,  0.789306768938601 ]
    mass: 24.305000
    reduced_to: 91
  - symbol: Mg # 176
    coordinates: [  0.088888888888890,  0.977777777777778,  0.789306768938601 ]
    mass: 24.305000
    reduced_to: 91
  - symbol: Mg # 177
    coordinates: [  0.188888888888890,  0.077777777777778,  0.789306768938601 ]
    mass: 24.305000
    reduced_to: 91
  - symbol: Mg # 178
    coordinates: [  0.288888888888890,  0.177777777777778,  0.789306768938601 ]
    mass: 24.305000
    reduced_to: 91
  - symbol: Mg # 179
    coordinates: [  0.388888888888890,  0.277777777777778,  0.789306768938601 ]
    mass: 24.305000
    reduced_to: 91
  - symbol: Mg # 180
    coordinates: [  0.488888888888890,  0.377777777777778,  0.789306768938601 ]
    mass: 24.305000
    reduced_to: 91
  - symbol: Mg # 181
    coordinates: [  0.011111111111110,  0.122222222222222,  0.210693231061402 ]
    mass: 24.305000
    reduced_to: 181
  - symbol: Mg # 182
    coordinates: [  0.111111111111110,  0.222222222222222,  0.210693231061402 ]
    mass: 24.305000
    reduced_to: 181
  - symbol: Mg # 183
    coordinates: [  0.211111111111110,  0.322222222222222,  0.210693231061402 ]
    mass: 24.305000
    reduced_to: 181
  - symbol: Mg # 184
    coordinates: [  0.311111111111111,  0.422222222222222,  0.210693231061402 ]
    mass: 24.305000
    reduced_to: 181
  - symbol: Mg # 185
    coordinates: [  0.411111111111110,  0.522222222222222,  0.210693231061402 ]
    mass: 24.305000
    reduced_to: 181
  - symbol: Mg # 186
    coordinates: [  0.511111111111111,  0.622222222222222,  0.210693231061402 ]
    mass: 24.305000
    reduced_to: 181
  - symbol: Mg # 187
    coordinates: [  0.611111111111111,  0.722222222222222,  0.210693231061402 ]
    mass: 24.305000
    reduced_to: 181
  - symbol: Mg # 188
    coordinates: [  0.711111111111111,  0.822222222222222,  0.210693231061402 ]
    mass: 24.305000
    reduced_to: 181
  - symbol: Mg # 189
    coordinates: [  0.811111111111111,  0.922222222222222,  0.210693231061402 ]
    mass: 24.305000
    reduced_to: 181
  - symbol: Mg # 190
    coordinates: [  0.911111111111111,  0.022222222222222,  0.210693231061402 ]
    mass: 24.305000
    reduced_to: 181
  - symbol: Mg # 191
    coordinates: [  0.844444444444444,  0.288888888888889,  0.210693231061402 ]
    mass: 24.305000
    reduced_to: 181
  - symbol: Mg # 192
    coordinates: [  0.944444444444444,  0.388888888888889,  0.210693231061402 ]
    mass: 24.305000
    reduced_to: 181
  - symbol: Mg # 193
    coordinates: [  0.044444444444444,  0.488888888888889,  0.210693231061402 ]
    mass: 24.305000
    reduced_to: 181
  - symbol: Mg # 194
    coordinates: [  0.144444444444444,  0.588888888888889,  0.210693231061402 ]
    mass: 24.305000
    reduced_to: 181
  - symbol: Mg # 195
    coordinates: [  0.244444444444444,  0.688888888888889,  0.210693231061402 ]
    mass: 24.305000
    reduced_to: 181
  - symbol: Mg # 196