phonopy:
  version: "2.21.0"
  frequency_unit_conversion_factor: 15.633302
  symmetry_tolerance: 1.00000e-04

space_group:
  type: "Pbca"
  number: 61
  Hall_symbol: "-P 2ac 2ab"

primitive_matrix:
- [  1.000000000000000,  0.000000000000000,  0.000000000000000 ]
- [  0.000000000000000,  1.000000000000000,  0.000000000000000 ]
- [  0.000000000000000,  0.000000000000000,  1.000000000000000 ]

supercell_matrix:
- [   4,   0,   0 ]
- [   0,   3,   0 ]
- [   0,   0,   3 ]

primitive_cell:
  lattice:
  - [     6.285605487092787,     0.000000000000000,     0.000000000000000 ] # a
  - [    -0.000000000000001,     7.819634324565413,     0.000000000000001 ] # b
  - [     0.000000000000000,     0.000000000000000,     8.222087561499821 ] # c
  points:
  - symbol: Zn # 1
    coordinates: [  0.459391321102606,  0.106282529381063,  0.872602200812279 ]
    mass: 65.380000
  - symbol: Zn # 2
    coordinates: [  0.959391321102606,  0.393717470618937,  0.127397799187721 ]
    mass: 65.380000
  - symbol: Zn # 3
    coordinates: [  0.540608678897394,  0.606282529381063,  0.627397799187721 ]
    mass: 65.380000
  - symbol: Zn # 4
    coordinates: [  0.040608678897394,  0.893717470618937,  0.372602200812279 ]
    mass: 65.380000
  - symbol: Zn # 5
    coordinates: [  0.540608678897394,  0.893717470618937,  0.127397799187721 ]
    mass: 65.380000
  - symbol: Zn # 6
    coordinates: [  0.040608678897394,  0.606282529381063,  0.872602200812279 ]
    mass: 65.380000
  - symbol: Zn # 7
    coordinates: [  0.459391321102606,  0.393717470618937,  0.372602200812279 ]
    mass: 65.380000
  - symbol: Zn # 8
    coordinates: [  0.959391321102606,  0.106282529381063,  0.627397799187721 ]
    mass: 65.380000
  - symbol: Sb # 9
    coordinates: [  0.141709909989748,  0.083190459508312,  0.109347572989442 ]
    mass: 121.760000
  - symbol: Sb # 10
    coordinates: [  0.641709909989748,  0.416809540491688,  0.890652427010558 ]
    mass: 121.760000
  - symbol: Sb # 11
    coordinates: [  0.858290090010252,  0.583190459508312,  0.390652427010559 ]
    mass: 121.760000
  - symbol: Sb # 12
    coordinates: [  0.358290090010252,  0.916809540491688,  0.609347572989441 ]
    mass: 121.760000
  - symbol: Sb # 13
    coordinates: [  0.858290090010252,  0.916809540491688,  0.890652427010558 ]
    mass: 121.760000
  - symbol: Sb # 14
    coordinates: [  0.358290090010252,  0.583190459508312,  0.109347572989442 ]
    mass: 121.760000
  - symbol: Sb # 15
    coordinates: [  0.141709909989748,  0.416809540491688,  0.609347572989441 ]
    mass: 121.760000
  - symbol: Sb # 16
    coordinates: [  0.641709909989748,  0.083190459508312,  0.390652427010559 ]
    mass: 121.760000
  reciprocal_lattice: # without 2pi
  - [     0.159093662822692,     0.000000000000000,     0.000000000000000 ] # a*
  - [     0.000000000000000,     0.127883217871007,     0.000000000000000 ] # b*
  - [    -0.000000000000000,    -0.000000000000000,     0.121623613531256 ] # c*

unit_cell:
  lattice:
  - [     6.285605487092787,     0.000000000000000,     0.000000000000000 ] # a
  - [    -0.000000000000001,     7.819634324565413,     0.000000000000001 ] # b
  - [     0.000000000000000,     0.000000000000000,     8.222087561499821 ] # c
  points:
  - symbol: Zn # 1
    coordinates: [  0.459391321102606,  0.106282529381063,  0.872602200812279 ]
    mass: 65.380000
    reduced_to: 1
  - symbol: Zn # 2
    coordinates: [  0.959391321102606,  0.393717470618937,  0.127397799187721 ]
    mass: 65.380000
    reduced_to: 2
  - symbol: Zn # 3
    coordinates: [  0.540608678897394,  0.606282529381063,  0.627397799187721 ]
    mass: 65.380000
    reduced_to: 3
  - symbol: Zn # 4
    coordinates: [  0.040608678897394,  0.893717470618937,  0.372602200812279 ]
    mass: 65.380000
    reduced_to: 4
  - symbol: Zn # 5
    coordinates: [  0.540608678897394,  0.893717470618937,  0.127397799187721 ]
    mass: 65.380000
    reduced_to: 5
  - symbol: Zn # 6
    coordinates: [  0.040608678897394,  0.606282529381063,  0.872602200812279 ]
    mass: 65.380000
    reduced_to: 6
  - symbol: Zn # 7
    coordinates: [  0.459391321102606,  0.393717470618937,  0.372602200812279 ]
    mass: 65.380000
    reduced_to: 7
  - symbol: Zn # 8
    coordinates: [  0.959391321102606,  0.106282529381063,  0.627397799187721 ]
    mass: 65.380000
    reduced_to: 8
  - symbol: Sb # 9
    coordinates: [  0.141709909989748,  0.083190459508312,  0.109347572989442 ]
    mass: 121.760000
    reduced_to: 9
  - symbol: Sb # 10
    coordinates: [  0.641709909989748,  0.416809540491688,  0.890652427010559 ]
    mass: 121.760000
    reduced_to: 10
  - symbol: Sb # 11
    coordinates: [  0.858290090010252,  0.583190459508312,  0.390652427010559 ]
    mass: 121.760000
    reduced_to: 11
  - symbol: Sb # 12
    coordinates: [  0.358290090010252,  0.916809540491688,  0.609347572989441 ]
    mass: 121.760000
    reduced_to: 12
  - symbol: Sb # 13
    coordinates: [  0.858290090010252,  0.916809540491688,  0.890652427010559 ]
    mass: 121.760000
    reduced_to: 13
  - symbol: Sb # 14
    coordinates: [  0.358290090010252,  0.583190459508312,  0.109347572989442 ]
    mass: 121.760000
    reduced_to: 14
  - symbol: Sb # 15
    coordinates: [  0.141709909989748,  0.416809540491688,  0.609347572989441 ]
    mass: 121.760000
    reduced_to: 15
  - symbol: Sb # 16
    coordinates: [  0.641709909989748,  0.083190459508312,  0.390652427010559 ]
    mass: 121.760000
    reduced_to: 16

supercell:
  lattice:
  - [    25.142421948371148,     0.000000000000000,     0.000000000000002 ] # a
  - [    -0.000000000000002,    23.458902973696240,     0.000000000000002 ] # b
  - [     0.000000000000000,     0.000000000000000,    24.666262684499465 ] # c
  points:
  - symbol: Zn # 1
    coordinates: [  0.114847830275652,  0.035427509793688,  0.290867400270760 ]
    mass: 65.380000
    reduced_to: 1
  - symbol: Zn # 2
    coordinates: [  0.364847830275652,  0.035427509793688,  0.290867400270760 ]
    mass: 65.380000
    reduced_to: 1
  - symbol: Zn # 3
    coordinates: [  0.614847830275652,  0.035427509793688,  0.290867400270760 ]
    mass: 65.380000
    reduced_to: 1
  - symbol: Zn # 4
    coordinates: [  0.864847830275652,  0.035427509793688,  0.290867400270760 ]
    mass: 65.380000
    reduced_to: 1
  - symbol: Zn # 5
    coordinates: [  0.114847830275652,  0.368760843127021,  0.290867400270760 ]
    mass: 65.380000
    reduced_to: 1
  - symbol: Zn # 6
    coordinates: [  0.364847830275652,  0.368760843127021,  0.290867400270760 ]
    mass: 65.380000
    reduced_to: 1
  - symbol: Zn # 7
    coordinates: [  0.614847830275652,  0.368760843127021,  0.290867400270760 ]
    mass: 65.380000
    reduced_to: 1
  - symbol: Zn # 8
    coordinates: [  0.864847830275652,  0.368760843127021,  0.290867400270760 ]
    mass: 65.380000
    reduced_to: 1
  - symbol: Zn # 9
    coordinates: [  0.114847830275652,  0.702094176460354,  0.290867400270760 ]
    mass: 65.380000
    reduced_to: 1
  - symbol: Zn # 10
    coordinates: [  0.364847830275652,  0.702094176460354,  0.290867400270760 ]
    mass: 65.380000
    reduced_to: 1
  - symbol: Zn # 11
    coordinates: [  0.614847830275652,  0.702094176460354,  0.290867400270760 ]
    mass: 65.380000
    reduced_to: 1
  - symbol: Zn # 12
    coordinates: [  0.864847830275652,  0.702094176460354,  0.290867400270760 ]
    mass: 65.380000
    reduced_to: 1
  - symbol: Zn # 13
    coordinates: [  0.114847830275652,  0.035427509793688,  0.624200733604093 ]
    mass: 65.380000
    reduced_to: 1
  - symbol: Zn # 14
    coordinates: [  0.364847830275652,  0.035427509793688,  0.624200733604093 ]
    mass: 65.380000
    reduced_to: 1
  - symbol: Zn # 15
    coordinates: [  0.614847830275652,  0.035427509793688,  0.624200733604093 ]
    mass: 65.380000
    reduced_to: 1
  - symbol: Zn # 16
    coordinates: [  0.864847830275652,  0.035427509793688,  0.624200733604093 ]
    mass: 65.380000
    reduced_to: 1
  - symbol: Zn # 17
    coordinates: [  0.114847830275652,  0.368760843127021,  0.624200733604093 ]
    mass: 65.380000
    reduced_to: 1
  - symbol: Zn # 18
    coordinates: [  0.364847830275652,  0.368760843127021,  0.624200733604093 ]
    mass: 65.380000
    reduced_to: 1
  - symbol: Zn # 19
    coordinates: [  0.614847830275652,  0.368760843127021,  0.624200733604093 ]
    mass: 65.380000
    reduced_to: 1
  - symbol: Zn # 20
    coordinates: [  0.864847830275652,  0.368760843127021,  0.624200733604093 ]
    mass: 65.380000
    reduced_to: 1
  - symbol: Zn # 21
    coordinates: [  0.114847830275652,  0.702094176460354,  0.624200733604093 ]
    mass: 65.380000
    reduced_to: 1
  - symbol: Zn # 22
    coordinates: [  0.364847830275652,  0.702094176460354,  0.624200733604093 ]
    mass: 65.380000
    reduced_to: 1
  - symbol: Zn # 23
    coordinates: [  0.614847830275652,  0.702094176460354,  0.624200733604093 ]
    mass: 65.380000
    reduced_to: 1
  - symbol: Zn # 24
    coordinates: [  0.864847830275652,  0.702094176460354,  0.624200733604093 ]
    mass: 65.380000
    reduced_to: 1
  - symbol: Zn # 25
    coordinates: [  0.114847830275652,  0.035427509793688,  0.957534066937426 ]
    mass: 65.380000
    reduced_to: 1
  - symbol: Zn # 26
    coordinates: [  0.364847830275652,  0.035427509793688,  0.957534066937426 ]
    mass: 65.380000
    reduced_to: 1
  - symbol: Zn # 27
    coordinates: [  0.614847830275652,  0.035427509793688,  0.957534066937426 ]
    mass: 65.380000
    reduced_to: 1
  - symbol: Zn # 28
    coordinates: [  0.864847830275652,  0.035427509793688,  0.957534066937426 ]
    mass: 65.380000
    reduced_to: 1
  - symbol: Zn # 29
    coordinates: [  0.114847830275652,  0.368760843127021,  0.957534066937426 ]
    mass: 65.380000
    reduced_to: 1
  - symbol: Zn # 30
    coordinates: [  0.364847830275652,  0.368760843127021,  0.957534066937426 ]
    mass: 65.380000
    reduced_to: 1
  - symbol: Zn # 31
    coordinates: [  0.614847830275652,  0.368760843127021,  0.957534066937426 ]
    mass: 65.380000
    reduced_to: 1
  - symbol: Zn # 32
    coordinates: [  0.864847830275652,  0.368760843127021,  0.957534066937426 ]
    mass: 65.380000
    reduced_to: 1
  - symbol: Zn # 33
    coordinates: [  0.114847830275652,  0.702094176460354,  0.957534066937426 ]
    mass: 65.380000
    reduced_to: 1
  - symbol: Zn # 34
    coordinates: [  0.364847830275652,  0.702094176460354,  0.957534066937426 ]
    mass: 65.380000
    reduced_to: 1
  - symbol: Zn # 35
    coordinates: [  0.614847830275652,  0.702094176460354,  0.957534066937426 ]
    mass: 65.380000
    reduced_to: 1
  - symbol: Zn # 36
    coordinates: [  0.864847830275652,  0.702094176460354,  0.957534066937426 ]
    mass: 65.380000
    reduced_to: 1
  - symbol: Zn # 37
    coordinates: [  0.239847830275652,  0.131239156872979,  0.042465933062574 ]
    mass: 65.380000
    reduced_to: 37
  - symbol: Zn # 38
    coordinates: [  0.489847830275652,  0.131239156872979,  0.042465933062574 ]
    mass: 65.380000
    reduced_to: 37
  - symbol: Zn # 39
    coordinates: [  0.739847830275652,  0.131239156872979,  0.042465933062574 ]
    mass: 65.380000
    reduced_to: 37
  - symbol: Zn # 40
    coordinates: [  0.989847830275652,  0.131239156872979,  0.042465933062574 ]
    mass: 65.380000
    reduced_to: 37
  - symbol: Zn # 41
    coordinates: [  0.239847830275652,  0.464572490206312,  0.042465933062574 ]
    mass: 65.380000
    reduced_to: 37
  - symbol: Zn # 42
    coordinates: [  0.489847830275652,  0.464572490206312,  0.042465933062574 ]
    mass: 65.380000
    reduced_to: 37
  - symbol: Zn # 43
    coordinates: [  0.739847830275652,  0.464572490206312,  0.042465933062574 ]
    mass: 65.380000
    reduced_to: 37
  - symbol: Zn # 44
    coordinates: [  0.989847830275652,  0.464572490206312,  0.042465933062574 ]
    mass: 65.380000
    reduced_to: 37
  - symbol: Zn # 45
    coordinates: [  0.239847830275652,  0.797905823539646,  0.042465933062574 ]
    mass: 65.380000
    reduced_to: 37
  - symbol: Zn # 46
    coordinates: [  0.489847830275652,  0.797905823539646,  0.042465933062574 ]
    mass: 65.380000
    reduced_to: 37
  - symbol: Zn # 47
    coordinates: [  0.739847830275652,  0.797905823539646,  0.042465933062574 ]
    mass: 65.380000
    reduced_to: 37
  - symbol: Zn # 48
    coordinates: [  0.989847830275652,  0.797905823539646,  0.042465933062574 ]
    mass: 65.380000
    reduced_to: 37
  - symbol: Zn # 49
    coordinates: [  0.239847830275652,  0.131239156872979,  0.375799266395907 ]
    mass: 65.380000
    reduced_to: 37
  - symbol: Zn # 50
    coordinates: [  0.489847830275652,  0.131239156872979,  0.375799266395907 ]
    mass: 65.380000
    reduced_to: 37
  - symbol: Zn # 51
    coordinates: [  0.739847830275652,  0.131239156872979,  0.375799266395907 ]
    mass: 65.380000
    reduced_to: 37
  - symbol: Zn # 52
    coordinates: [  0.989847830275652,  0.131239156872979,  0.375799266395907 ]
    mass: 65.380000
    reduced_to: 37
  - symbol: Zn # 53
    coordinates: [  0.239847830275652,  0.464572490206312,  0.375799266395907 ]
    mass: 65.380000
    reduced_to: 37
  - symbol: Zn # 54
    coordinates: [  0.489847830275652,  0.464572490206312,  0.375799266395907 ]
    mass: 65.380000
    reduced_to: 37
  - symbol: Zn # 55
    coordinates: [  0.739847830275652,  0.464572490206312,  0.375799266395907 ]
    mass: 65.380000
    reduced_to: 37
  - symbol: Zn # 56
    coordinates: [  0.989847830275652,  0.464572490206312,  0.375799266395907 ]
    mass: 65.380000
    reduced_to: 37
  - symbol: Zn # 57
    coordinates: [  0.239847830275652,  0.797905823539646,  0.375799266395907 ]
    mass: 65.380000
    reduced_to: 37
  - symbol: Zn # 58
    coordinates: [  0.489847830275652,  0.797905823539646,  0.375799266395907 ]
    mass: 65.380000
    reduced_to: 37
  - symbol: Zn # 59
    coordinates: [  0.739847830275652,  0.797905823539646,  0.375799266395907 ]
    mass: 65.380000
    reduced_to: 37
  - symbol: Zn # 60
    coordinates: [  0.989847830275652,  0.797905823539646,  0.375799266395907 ]
    mass: 65.380000
    reduced_to: 37
  - symbol: Zn # 61
    coordinates: [  0.239847830275652,  0.131239156872979,  0.709132599729240 ]
    mass: 65.380000
    reduced_to: 37
  - symbol: Zn # 62
    coordinates: [  0.489847830275652,  0.131239156872979,  0.709132599729240 ]
    mass: 65.380000
    reduced_to: 37
  - symbol: Zn # 63
    coordinates: [  0.739847830275652,  0.131239156872979,  0.709132599729240 ]
    mass: 65.380000
    reduced_to: 37
  - symbol: Zn # 64
    coordinates: [  0.989847830275652,  0.131239156872979,  0.709132599729240 ]
    mass: 65.380000
    reduced_to: 37
  - symbol: Zn # 65
    coordinates: [  0.239847830275652,  0.464572490206312,  0.709132599729240 ]
    mass: 65.380000
    reduced_to: 37
  - symbol: Zn # 66
    coordinates: [  0.489847830275652,  0.464572490206312,  0.709132599729240 ]
    mass: 65.380000
    reduced_to: 37
  - symbol: Zn # 67
    coordinates: [  0.739847830275652,  0.464572490206312,  0.709132599729240 ]
    mass: 65.380000
    reduced_to: 37
  - symbol: Zn # 68
    coordinates: [  0.989847830275652,  0.464572490206312,  0.709132599729240 ]
    mass: 65.380000
    reduced_to: 37
  - symbol: Zn # 69
    coordinates: [  0.239847830275652,  0.797905823539646,  0.709132599729240 ]
    mass: 65.380000
    reduced_to: 37
  - symbol: Zn # 70
    coordinates: [  0.489847830275652,  0.797905823539646,  0.709132599729240 ]
    mass: 65.380000
    reduced_to: 37
  - symbol: Zn # 71
    coordinates: [  0.739847830275652,  0.797905823539646,  0.709132599729240 ]
    mass: 65.380000
    reduced_to: 37
  - symbol: Zn # 72
    coordinates: [  0.989847830275652,  0.797905823539646,  0.709132599729240 ]
    mass: 65.380000
    reduced_to: 37
  - symbol: Zn # 73
    coordinates: [  0.135152169724348,  0.202094176460354,  0.209132599729240 ]
    mass: 65.380000
    reduced_to: 73
  - symbol: Zn # 74
    coordinates: [  0.385152169724348,  0.202094176460354,  0.209132599729240 ]
    mass: 65.380000
    reduced_to: 73
  - symbol: Zn # 75
    coordinates: [  0.635152169724348,  0.202094176460354,  0.209132599729240 ]
    mass: 65.380000
    reduced_to: 73
  - symbol: Zn # 76
    coordinates: [  0.885152169724348,  0.202094176460354,  0.209132599729240 ]
    mass: 65.380000
    reduced_to: 73
  - symbol: Zn # 77
    coordinates: [  0.135152169724348,  0.535427509793688,  0.209132599729240 ]
    mass: 65.380000
    reduced_to: 73
  - symbol: Zn # 78
    coordinates: [  0.385152169724348,  0.535427509793688,  0.209132599729240 ]
    mass: 65.380000
    reduced_to: 73
  - symbol: Zn # 79
    coordinates: [  0.635152169724348,  0.535427509793688,  0.209132599729240 ]
    mass: 65.380000
    reduced_to: 73
  - symbol: Zn # 80
    coordinates: [  0.885152169724348,  0.535427509793688,  0.209132599729240 ]
    mass: 65.380000
    reduced_to: 73
  - symbol: Zn # 81
    coordinates: [  0.135152169724348,  0.868760843127021,  0.209132599729240 ]
    mass: 65.380000
    reduced_to: 73
  - symbol: Zn # 82
    coordinates: [  0.385152169724348,  0.868760843127021,  0.209132599729240 ]
    mass: 65.380000
    reduced_to: 73
  - symbol: Zn # 83
    coordinates: [  0.635152169724348,  0.868760843127021,  0.209132599729240 ]
    mass: 65.380000
    reduced_to: 73
  - symbol: Zn # 84
    coordinates: [  0.885152169724348,  0.868760843127021,  0.209132599729240 ]
    mass: 65.380000
    reduced_to: 73
  - symbol: Zn # 85
    coordinates: [  0.135152169724348,  0.202094176460354,  0.542465933062574 ]
    mass: 65.380000
    reduced_to: 73
  - symbol: Zn # 86
    coordinates: [  0.385152169724348,  0.202094176460354,  0.542465933062574 ]
    mass: 65.380000
    reduced_to: 73
  - symbol: Zn # 87
    coordinates: [  0.635152169724348,  0.202094176460354,  0.542465933062574 ]
    mass: 65.380000
    reduced_to: 73
  - symbol: Zn # 88
    coordinates: [  0.885152169724348,  0.202094176460354,  0.542465933062574 ]
    mass: 65.380000
    reduced_to: 73
  - symbol: Zn # 89
    coordinates: [  0.135152169724348,  0.535427509793688,  0.542465933062574 ]
    mass: 65.380000
    reduced_to: 73
  - symbol: Zn # 90
    coordinates: [  0.385152169724348,  0.535427509793688,  0.542465933062574 ]
    mass: 65.380000
    reduced_to: 73
  - symbol: Zn # 91
    coordinates: [  0.635152169724348,  0.535427509793688,  0.542465933062574 ]
    mass: 65.380000
    reduced_to: 73
  - symbol: Zn # 92
    coordinates: [  0.885152169724348,  0.535427509793688,  0.542465933062574 ]
    mass: 65.380000
    reduced_to: 73
  - symbol: Zn # 93
    coordinates: [  0.135152169724348,  0.868760843127021,  0.542465933062574 ]
    mass: 65.380000
    reduced_to: 73
  - symbol: Zn # 94
    coordinates: [  0.385152169724348,  0.868760843127021,  0.542465933062574 ]
    mass: 65.380000
    reduced_to: 73
  - symbol: Zn # 95
    coordinates: [  0.635152169724348,  0.868760843127021,  0.542465933062574 ]
    mass: 65.380000
    reduced_to: 73
  - symbol: Zn # 96
    coordinates: [  0.885152169724348,  0.868760843127021,  0.542465933062574 ]
    mass: 65.380000
    reduced_to: 73
  - symbol: Zn # 97
    coordinates: [  0.135152169724348,  0.202094176460354,  0.875799266395907 ]
    mass: 65.380000
    reduced_to: 73
  - symbol: Zn # 98
    coordinates: [  0.385152169724348,  0.202094176460354,  0.875799266395907 ]
    mass: 65.380000
    reduced_to: 73
  - symbol: Zn # 99
    coordinates: [  0.635152169724348,  0.202094176460354,  0.875799266395907 ]
    mass: 65.380000
    reduced_to: 73
  - symbol: Zn # 100
    coordinates: [  0.885152169724348,  0.202094176460354,  0.875799266395907 ]
    mass: 65.380000
    reduced_to: 73
  - symbol: Zn # 101
    coordinates: [  0.135152169724348,  0.535427509793688,  0.875799266395907 ]
    mass: 65.380000
    reduced_to: 73
  - symbol: Zn # 102
    coordinates: [  0.385152169724348,  0.535427509793688,  0.875799266395907 ]
    mass: 65.380000
    reduced_to: 73
  - symbol: Zn # 103
    coordinates: [  0.635152169724348,  0.535427509793688,  0.875799266395907 ]
    mass: 65.380000
    reduced_to: 73
  - symbol: Zn # 104
    coordinates: [  0.885152169724348,  0.535427509793688,  0.875799266395907 ]
    mass: 65.380000
    reduced_to: 73
  - symbol: Zn # 105
    coordinates: [  0.135152169724348,  0.868760843127021,  0.875799266395907 ]
    mass: 65.380000
    reduced_to: 73
  - symbol: Zn # 106
    coordinates: [  0.385152169724348,  0.868760843127021,  0.875799266395907 ]
    mass: 65.380000
    reduced_to: 73
  - symbol: Zn # 107
    coordinates: [  0.635152169724348,  0.868760843127021,  0.875799266395907 ]
    mass: 65.380000
    reduced_to: 73
  - symbol: Zn # 108
    coordinates: [  0.885152169724348,  0.868760843127021,  0.875799266395907 ]
    mass: 65.380000
    reduced_to: 73
  - symbol: Zn # 109
    coordinates: [  0.010152169724348,  0.297905823539646,  0.124200733604093 ]
    mass: 65.380000
    reduced_to: 109
  - symbol: Zn # 110
    coordinates: [  0.260152169724348,  0.297905823539646,  0.124200733604093 ]
    mass: 65.380000
    reduced_to: 109
  - symbol: Zn # 111
    coordinates: [  0.510152169724348,  0.297905823539646,  0.124200733604093 ]
    mass: 65.380000
    reduced_to: 109
  - symbol: Zn # 112
    coordinates: [  0.760152169724348,  0.297905823539646,  0.124200733604093 ]
    mass: 65.380000
    reduced_to: 109
  - symbol: Zn # 113
    coordinates: [  0.010152169724348,  0.631239156872979,  0.124200733604093 ]
    mass: 65.380000
    reduced_to: 109
  - symbol: Zn # 114
    coordinates: [  0.260152169724348,  0.631239156872979,  0.124200733604093 ]
    mass: 65.380000
    reduced_to: 109
  - symbol: Zn # 115
    coordinates: [  0.510152169724348,  0.631239156872979,  0.124200733604093 ]
    mass: 65.380000
    reduced_to: 109
  - symbol: Zn # 116
    coordinates: [  0.760152169724348,  0.631239156872979,  0.124200733604093 ]
    mass: 65.380000
    reduced_to: 109
  - symbol: Zn # 117
    coordinates: [  0.010152169724348,  0.964572490206312,  0.124200733604093 ]
    mass: 65.380000
    reduced_to: 109
  - symbol: Zn # 118
    coordinates: [  0.260152169724348,  0.964572490206312,  0.124200733604093 ]
    mass: 65.380000
    reduced_to: 109
  - symbol: Zn # 119
    coordinates: [  0.510152169724348,  0.964572490206312,  0.124200733604093 ]
    mass: 65.380000
    reduced_to: 109
  - symbol: Zn # 120
    coordinates: [  0.760152169724348,  0.964572490206312,  0.124200733604093 ]
    mass: 65.380000
    reduced_to: 109
  - symbol: Zn # 121
    coordinates: [  0.010152169724348,  0.297905823539646,  0.457534066937426 ]
    mass: 65.380000
    reduced_to: 109
  - symbol: Zn # 122
    coordinates: [  0.260152169724348,  0.297905823539646,  0.457534066937426 ]
    mass: 65.380000
    reduced_to: 109
  - symbol: Zn # 123
    coordinates: [  0.510152169724348,  0.297905823539646,  0.457534066937426 ]
    mass: 65.380000
    reduced_to: 109
  - symbol: Zn # 124
    coordinates: [  0.760152169724348,  0.297905823539646,  0.457534066937426 ]
    mass: 65.380000
    reduced_to: 109
  - symbol: Zn # 125
    coordinates: [  0.010152169724348,  0.631239156872979,  0.457534066937426 ]
    mass: 65.380000
    reduced_to: 109
  - symbol: Zn # 126
    coordinates: [  0.260152169724348,  0.631239156872979,  0.457534066937426 ]
    mass: 65.380000
    reduced_to: 109
  - symbol: Zn # 127
    coordinates: [  0.510152169724348,  0.631239156872979,  0.457534066937426 ]
    mass: 65.380000
    reduced_to: 109
  - symbol: Zn # 128
    coordinates: [  0.760152169724348,  0.631239156872979,  0.457534066937426 ]
    mass: 65.380000
    reduced_to: 109
  - symbol: Zn # 129
    coordinates: [  0.010152169724348,  0.964572490206312,  0.457534066937426 ]
    mass: 65.380000
    reduced_to: 109
  - symbol: Zn # 130
    coordinates: [  0.260152169724348,  0.964572490206312,  0.457534066937426 ]
    mass: 65.380000
    reduced_to: 109
  - symbol: Zn # 131
    coordinates: [  0.510152169724348,  0.964572490206312,  0.457534066937426 ]
    mass: 65.380000
    reduced_to: 109
  - symbol: Zn # 132
    coordinates: [  0.760152169724348,  0.964572490206312,  0.457534066937426 ]
    mass: 65.380000
    reduced_to: 109
  - symbol: Zn # 133
    coordinates: [  0.010152169724348,  0.297905823539646,  0.790867400270760 ]
    mass: 65.380000
    reduced_to: 109
  - symbol: Zn # 134
    coordinates: [  0.260152169724348,  0.297905823539646,  0.790867400270760 ]
    mass: 65.380000
    reduced_to: 109
  - symbol: Zn # 135
    coordinates: [  0.510152169724348,  0.297905823539646,  0.790867400270760 ]
    mass: 65.380000
    reduced_to: 109
  - symbol: Zn # 136
    coordinates: [  0.760152169724348,  0.297905823539646,  0.790867400270760 ]
    mass: 65.380000
    reduced_to: 109
  - symbol: Zn # 137
    coordinates: [  0.010152169724348,  0.631239156872979,  0.790867400270760 ]
    mass: 65.380000
    reduced_to: 109
  - symbol: Zn # 138
    coordinates: [  0.260152169724348,  0.631239156872979,  0.790867400270760 ]
    mass: 65.380000
    reduced_to: 109
  - symbol: Zn # 139
    coordinates: [  0.510152169724348,  0.631239156872979,  0.790867400270760 ]
    mass: 65.380000
    reduced_to: 109
  - symbol: Zn # 140
    coordinates: [  0.760152169724348,  0.631239156872979,  0.790867400270760 ]
    mass: 65.380000
    reduced_to: 109
  - symbol: Zn # 141
    coordinates: [  0.010152169724348,  0.964572490206312,  0.790867400270760 ]
    mass: 65.380000
    reduced_to: 109
  - symbol: Zn # 142
    coordinates: [  0.260152169724348,  0.964572490206312,  0.790867400270760 ]
    mass: 65.380000
    reduced_to: 109
  - symbol: Zn # 143
    coordinates: [  0.510152169724348,  0.964572490206312,  0.790867400270760 ]
    mass: 65.380000
    reduced_to: 109
  - symbol: Zn # 144
    coordinates: [  0.760152169724348,  0.964572490206312,  0.790867400270760 ]
    mass: 65.380000
    reduced_to: 109
  - symbol: Zn # 145
    coordinates: [  0.135152169724348,  0.297905823539646,  0.042465933062574 ]
    mass: 65.380000
    reduced_to: 145
  - symbol: Zn # 146
    coordinates: [  0.385152169724348,  0.297905823539646,  0.042465933062574 ]
    mass: 65.380000
    reduced_to: 145
  - symbol: Zn # 147
    coordinates: [  0.635152169724348,  0.297905823539646,  0.042465933062574 ]
    mass: 65.380000
    reduced_to: 145
  - symbol: Zn # 148
    coordinates: [  0.885152169724348,  0.297905823539646,  0.042465933062574 ]
    mass: 65.380000
    reduced_to: 145
  - symbol: Zn # 149
    coordinates: [  0.135152169724348,  0.631239156872979,  0.042465933062574 ]
    mass: 65.380000
    reduced_to: 145
  - symbol: Zn # 150
    coordinates: [  0.385152169724348,  0.631239156872979,  0.042465933062574 ]
    mass: 65.380000
    reduced_to: 145
  - symbol: Zn # 151
    coordinates: [  0.635152169724348,  0.631239156872979,  0.042465933062574 ]
    mass: 65.380000
    reduced_to: 145
  - symbol: Zn # 152
    coordinates: [  0.885152169724348,  0.631239156872979,  0.042465933062574 ]
    mass: 65.380000
    reduced_to: 145
  - symbol: Zn # 153
    coordinates: [  0.135152169724348,  0.964572490206312,  0.042465933062574 ]
    mass: 65.380000
    reduced_to: 145
  - symbol: Zn # 154
    coordinates: [  0.385152169724348,  0.964572490206312,  0.042465933062574 ]
    mass: 65.380000
    reduced_to: 145
  - symbol: Zn # 155
    coordinates: [  0.635152169724348,  0.964572490206312,  0.042465933062574 ]
    mass: 65.380000
    reduced_to: 145
  - symbol: Zn # 156
    coordinates: [  0.885152169724348,  0.964572490206312,  0.042465933062574 ]
    mass: 65.380000
    reduced_to: 145
  - symbol: Zn # 157
    coordinates: [  0.135152169724348,  0.297905823539646,  0.375799266395907 ]
    mass: 65.380000
    reduced_to: 145
  - symbol: Zn # 158
    coordinates: [  0.385152169724348,  0.297905823539646,  0.375799266395907 ]
    mass: 65.380000
    reduced_to: 145
  - symbol: Zn # 159
    coordinates: [  0.635152169724348,  0.297905823539646,  0.375799266395907 ]
    mass: 65.380000
    reduced_to: 145
  - symbol: Zn # 160
    coordinates: [  0.885152169724348,  0.297905823539646,  0.375799266395907 ]
    mass: 65.380000
    reduced_to: 145
  - symbol: Zn # 161
    coordinates: [  0.135152169724348,  0.631239156872979,  0.375799266395907 ]
    mass: 65.380000
    reduced_to: 145
  - symbol: Zn # 162
    coordinates: [  0.385152169724348,  0.631239156872979,  0.375799266395907 ]
    mass: 65.380000
    reduced_to: 145
  - symbol: Zn # 163
    coordinates: [  0.635152169724348,  0.631239156872979,  0.375799266395907 ]
    mass: 65.380000
    reduced_to: 145
  - symbol: Zn # 164
    coordinates: [  0.885152169724348,  0.631239156872979,  0.375799266395907 ]
    mass: 65.380000
    reduced_to: 145
  - symbol: Zn # 165
    coordinates: [  0.135152169724348,  0.964572490206312,  0.375799266395907 ]
    mass: 65.380000
    reduced_to: 145
  - symbol: Zn # 166
    coordinates: [  0.385152169724348,  0.964572490206312,  0.375799266395907 ]
    mass: 65.380000
    reduced_to: 145
  - symbol: Zn # 167
    coordinates: [  0.635152169724348,  0.964572490206312,  0.375799266395907 ]
    mass: 65.380000
    reduced_to: 145
  - symbol: Zn # 168
    coordinates: [  0.885152169724348,  0.964572490206312,  0.375799266395907 ]
    mass: 65.380000
    reduced_to: 145
  - symbol: Zn # 169
    coordinates: [  0.135152169724348,  0.297905823539646,  0.709132599729240 ]
    mass: 65.380000
    reduced_to: 145
  - symbol: Zn # 170
    coordinates: [  0.385152169724348,  0.297905823539646,  0.709132599729240 ]
    mass: 65.380000
    reduced_to: 145
  - symbol: Zn # 171
    coordinates: [  0.635152169724348,  0.297905823539646,  0.709132599729240 ]
    mass: 65.380000
    reduced_to: 145
  - symbol: Zn # 172
    coordinates: [  0.885152169724348,  0.297905823539646,  0.709132599729240 ]
    mass: 65.380000
    reduced_to: 145
  - symbol: Zn # 173
    coordinates: [  0.135152169724348,  0.631239156872979,  0.709132599729240 ]
    mass: 65.380000
    reduced_to: 145
  - symbol: Zn # 174
    coordinates: [  0.385152169724348,  0.631239156872979,  0.709132599729240 ]
    mass: 65.380000
    reduced_to: 145