phonopy:
  version: "2.21.0"
  frequency_unit_conversion_factor: 15.633302
  symmetry_tolerance: 1.00000e-04

space_group:
  type: "P4_1"
  number: 76
  Hall_symbol: "P 4w"

primitive_matrix:
- [  1.000000000000000, -0.000000000000000,  0.000000000000000 ]
- [  0.000000000000000,  1.000000000000000,  0.000000000000000 ]
- [ -0.000000000000000, -0.000000000000000,  1.000000000000000 ]

supercell_matrix:
- [   3,   0,   0 ]
- [   0,   3,   0 ]
- [   0,   0,   2 ]

primitive_cell:
  lattice:
  - [     9.018053859829706,    -0.000000492027286,     0.000000000000000 ] # a
  - [     0.000000492027285,     9.018053859829706,     0.000000000000000 ] # b
  - [     0.000000000000000,     0.000000000000000,    15.657655779058567 ] # c
  points:
  - symbol: Tl # 1
    coordinates: [  0.994586982134013,  0.813208122446642,  0.803320648800872 ]
    mass: 204.383300
  - symbol: Tl # 2
    coordinates: [  0.888083944469956,  0.682299609102221,  0.380314109972125 ]
    mass: 204.383300
  - symbol: Tl # 3
    coordinates: [  0.186791877553358,  0.994586982134013,  0.053320648800872 ]
    mass: 204.383300
  - symbol: Tl # 4
    coordinates: [  0.171902208052166,  0.359234683757196,  0.570130930886010 ]
    mass: 204.383300
  - symbol: Tl # 5
    coordinates: [  0.682299609102221,  0.111916055530045,  0.130314109972125 ]
    mass: 204.383300
  - symbol: Tl # 6
    coordinates: [  0.359234683757196,  0.828097791947834,  0.320130930886010 ]
    mass: 204.383300
  - symbol: Tl # 7
    coordinates: [  0.111916055530045,  0.317700390897779,  0.880314109972125 ]
    mass: 204.383300
  - symbol: Tl # 8
    coordinates: [  0.005413017865987,  0.186791877553358,  0.303320648800872 ]
    mass: 204.383300
  - symbol: Tl # 9
    coordinates: [  0.640765316242804,  0.171902208052166,  0.820130930886010 ]
    mass: 204.383300
  - symbol: Tl # 10
    coordinates: [  0.828097791947834,  0.640765316242804,  0.070130930886010 ]
    mass: 204.383300
  - symbol: Tl # 11
    coordinates: [  0.317700390897779,  0.888083944469955,  0.630314109972125 ]
    mass: 204.383300
  - symbol: Tl # 12
    coordinates: [  0.813208122446642,  0.005413017865987,  0.553320648800872 ]
    mass: 204.383300
  - symbol: Pb # 13
    coordinates: [  0.689021762951822,  0.526381109072158,  0.649162299545864 ]
    mass: 207.200000
  - symbol: Pb # 14
    coordinates: [  0.473618890927842,  0.689021762951821,  0.899162299545864 ]
    mass: 207.200000
  - symbol: Pb # 15
    coordinates: [  0.526381109072158,  0.310978237048178,  0.399162299545864 ]
    mass: 207.200000
  - symbol: Pb # 16
    coordinates: [  0.310978237048178,  0.473618890927842,  0.149162299545864 ]
    mass: 207.200000
  - symbol: Br # 17
    coordinates: [  0.360984625647311,  0.513701932061033,  0.754563743702866 ]
    mass: 79.904000
  - symbol: Br # 18
    coordinates: [  0.494968719841754,  0.798737252394586,  0.098754080223384 ]
    mass: 79.904000
  - symbol: Br # 19
    coordinates: [  0.201262747605414,  0.494968719841754,  0.348754080223384 ]
    mass: 79.904000
  - symbol: Br # 20
    coordinates: [  0.668709708072926,  0.021525859313966,  0.351310325247504 ]
    mass: 79.904000
  - symbol: Br # 21
    coordinates: [  0.646325228322053,  0.826764729498403,  0.723101856062067 ]
    mass: 79.904000
  - symbol: Br # 22
    coordinates: [  0.505031280158246,  0.201262747605414,  0.598754080223377 ]
    mass: 79.904000
  - symbol: Br # 23
    coordinates: [  0.639015374352690,  0.486298067938967,  0.254563743702859 ]
    mass: 79.904000
  - symbol: Br # 24
    coordinates: [  0.486298067938967,  0.360984625647311,  0.004563743702859 ]
    mass: 79.904000
  - symbol: Br # 25
    coordinates: [  0.021525859313966,  0.331290291927074,  0.101310325247503 ]
    mass: 79.904000
  - symbol: Br # 26
    coordinates: [  0.980880770515993,  0.165627769869891,  0.706342995559312 ]
    mass: 79.904000
  - symbol: Br # 27
    coordinates: [  0.798737252394586,  0.505031280158246,  0.848754080223377 ]
    mass: 79.904000
  - symbol: Br # 28
    coordinates: [  0.834372230130109,  0.980880770515993,  0.956342995559312 ]
    mass: 79.904000
  - symbol: Br # 29
    coordinates: [  0.165627769869891,  0.019119229484007,  0.456342995559319 ]
    mass: 79.904000
  - symbol: Br # 30
    coordinates: [  0.173235270501597,  0.646325228322053,  0.973101856062067 ]
    mass: 79.904000
  - symbol: Br # 31
    coordinates: [  0.331290291927074,  0.978474140686034,  0.851310325247503 ]
    mass: 79.904000
  - symbol: Br # 32
    coordinates: [  0.826764729498403,  0.353674771677947,  0.473101856062067 ]
    mass: 79.904000
  - symbol: Br # 33
    coordinates: [  0.978474140686034,  0.668709708072926,  0.601310325247503 ]
    mass: 79.904000
  - symbol: Br # 34
    coordinates: [  0.513701932061033,  0.639015374352690,  0.504563743702866 ]
    mass: 79.904000
  - symbol: Br # 35
    coordinates: [  0.353674771677947,  0.173235270501597,  0.223101856062067 ]
    mass: 79.904000
  - symbol: Br # 36
    coordinates: [  0.019119229484007,  0.834372230130109,  0.206342995559312 ]
    mass: 79.904000
  reciprocal_lattice: # without 2pi
  - [     0.110888670165791,    -0.000000006050114,     0.000000000000000 ] # a*
  - [     0.000000006050114,     0.110888670165791,     0.000000000000000 ] # b*
  - [    -0.000000000000000,    -0.000000000000000,     0.063866520896280 ] # c*

unit_cell:
  lattice:
  - [     9.018053859829706,    -0.000000492027286,     0.000000000000001 ] # a
  - [     0.000000492027285,     9.018053859829706,     0.000000000000001 ] # b
  - [    -0.000000000000000,    -0.000000000000000,    15.657655779058567 ] # c
  points:
  - symbol: Tl # 1
    coordinates: [  0.994586982134013,  0.813208122446642,  0.803320648800872 ]
    mass: 204.383300
    reduced_to: 1
  - symbol: Tl # 2
    coordinates: [  0.888083944469956,  0.682299609102221,  0.380314109972125 ]
    mass: 204.383300
    reduced_to: 2
  - symbol: Tl # 3
    coordinates: [  0.186791877553358,  0.994586982134013,  0.053320648800872 ]
    mass: 204.383300
    reduced_to: 3
  - symbol: Tl # 4
    coordinates: [  0.171902208052166,  0.359234683757196,  0.570130930886010 ]
    mass: 204.383300
    reduced_to: 4
  - symbol: Tl # 5
    coordinates: [  0.682299609102221,  0.111916055530045,  0.130314109972125 ]
    mass: 204.383300
    reduced_to: 5
  - symbol: Tl # 6
    coordinates: [  0.359234683757196,  0.828097791947834,  0.320130930886010 ]
    mass: 204.383300
    reduced_to: 6
  - symbol: Tl # 7
    coordinates: [  0.111916055530045,  0.317700390897779,  0.880314109972125 ]
    mass: 204.383300
    reduced_to: 7
  - symbol: Tl # 8
    coordinates: [  0.005413017865987,  0.186791877553358,  0.303320648800872 ]
    mass: 204.383300
    reduced_to: 8
  - symbol: Tl # 9
    coordinates: [  0.640765316242804,  0.171902208052166,  0.820130930886010 ]
    mass: 204.383300
    reduced_to: 9
  - symbol: Tl # 10
    coordinates: [  0.828097791947834,  0.640765316242804,  0.070130930886010 ]
    mass: 204.383300
    reduced_to: 10
  - symbol: Tl # 11
    coordinates: [  0.317700390897779,  0.888083944469956,  0.630314109972125 ]
    mass: 204.383300
    reduced_to: 11
  - symbol: Tl # 12
    coordinates: [  0.813208122446642,  0.005413017865987,  0.553320648800872 ]
    mass: 204.383300
    reduced_to: 12
  - symbol: Pb # 13
    coordinates: [  0.689021762951822,  0.526381109072158,  0.649162299545864 ]
    mass: 207.200000
    reduced_to: 13
  - symbol: Pb # 14
    coordinates: [  0.473618890927842,  0.689021762951822,  0.899162299545864 ]
    mass: 207.200000
    reduced_to: 14
  - symbol: Pb # 15
    coordinates: [  0.526381109072158,  0.310978237048178,  0.399162299545864 ]
    mass: 207.200000
    reduced_to: 15
  - symbol: Pb # 16
    coordinates: [  0.310978237048178,  0.473618890927842,  0.149162299545864 ]
    mass: 207.200000
    reduced_to: 16
  - symbol: Br # 17
    coordinates: [  0.360984625647311,  0.513701932061033,  0.754563743702866 ]
    mass: 79.904000
    reduced_to: 17
  - symbol: Br # 18
    coordinates: [  0.494968719841754,  0.798737252394586,  0.098754080223384 ]
    mass: 79.904000
    reduced_to: 18
  - symbol: Br # 19
    coordinates: [  0.201262747605414,  0.494968719841754,  0.348754080223384 ]
    mass: 79.904000
    reduced_to: 19
  - symbol: Br # 20
    coordinates: [  0.668709708072926,  0.021525859313966,  0.351310325247504 ]
    mass: 79.904000
    reduced_to: 20
  - symbol: Br # 21
    coordinates: [  0.646325228322053,  0.826764729498403,  0.723101856062067 ]
    mass: 79.904000
    reduced_to: 21
  - symbol: Br # 22
    coordinates: [  0.505031280158246,  0.201262747605414,  0.598754080223377 ]
    mass: 79.904000
    reduced_to: 22
  - symbol: Br # 23
    coordinates: [  0.639015374352690,  0.486298067938967,  0.254563743702859 ]
    mass: 79.904000
    reduced_to: 23
  - symbol: Br # 24
    coordinates: [  0.486298067938967,  0.360984625647311,  0.004563743702859 ]
    mass: 79.904000
    reduced_to: 24
  - symbol: Br # 25
    coordinates: [  0.021525859313966,  0.331290291927074,  0.101310325247503 ]
    mass: 79.904000
    reduced_to: 25
  - symbol: Br # 26
    coordinates: [  0.980880770515993,  0.165627769869891,  0.706342995559312 ]
    mass: 79.904000
    reduced_to: 26
  - symbol: Br # 27
    coordinates: [  0.798737252394586,  0.505031280158246,  0.848754080223377 ]
    mass: 79.904000
    reduced_to: 27
  - symbol: Br # 28
    coordinates: [  0.834372230130109,  0.980880770515993,  0.956342995559312 ]
    mass: 79.904000
    reduced_to: 28
  - symbol: Br # 29
    coordinates: [  0.165627769869891,  0.019119229484007,  0.456342995559319 ]
    mass: 79.904000
    reduced_to: 29
  - symbol: Br # 30
    coordinates: [  0.173235270501597,  0.646325228322053,  0.973101856062067 ]
    mass: 79.904000
    reduced_to: 30
  - symbol: Br # 31
    coordinates: [  0.331290291927074,  0.978474140686034,  0.851310325247503 ]
    mass: 79.904000
    reduced_to: 31
  - symbol: Br # 32
    coordinates: [  0.826764729498403,  0.353674771677947,  0.473101856062067 ]
    mass: 79.904000
    reduced_to: 32
  - symbol: Br # 33
    coordinates: [  0.978474140686034,  0.668709708072926,  0.601310325247503 ]
    mass: 79.904000
    reduced_to: 33
  - symbol: Br # 34
    coordinates: [  0.513701932061033,  0.639015374352690,  0.504563743702866 ]
    mass: 79.904000
    reduced_to: 34
  - symbol: Br # 35
    coordinates: [  0.353674771677947,  0.173235270501597,  0.223101856062067 ]
    mass: 79.904000
    reduced_to: 35
  - symbol: Br # 36
    coordinates: [  0.019119229484007,  0.834372230130109,  0.206342995559312 ]
    mass: 79.904000
    reduced_to: 36

supercell:
  lattice:
  - [    27.054161579489119,    -0.000001476081857,     0.000000000000002 ] # a
  - [     0.000001476081855,    27.054161579489119,     0.000000000000002 ] # b
  - [     0.000000000000000,     0.000000000000000,    31.315311558117134 ] # c
  points:
  - symbol: Tl # 1
    coordinates: [  0.331528994044671,  0.271069374148881,  0.401660324400436 ]
    mass: 204.383300
    reduced_to: 1
  - symbol: Tl # 2
    coordinates: [  0.664862327378004,  0.271069374148881,  0.401660324400436 ]
    mass: 204.383300
    reduced_to: 1
  - symbol: Tl # 3
    coordinates: [  0.998195660711338,  0.271069374148881,  0.401660324400436 ]
    mass: 204.383300
    reduced_to: 1
  - symbol: Tl # 4
    coordinates: [  0.331528994044671,  0.604402707482214,  0.401660324400436 ]
    mass: 204.383300
    reduced_to: 1
  - symbol: Tl # 5
    coordinates: [  0.664862327378004,  0.604402707482214,  0.401660324400436 ]
    mass: 204.383300
    reduced_to: 1
  - symbol: Tl # 6
    coordinates: [  0.998195660711338,  0.604402707482214,  0.401660324400436 ]
    mass: 204.383300
    reduced_to: 1
  - symbol: Tl # 7
    coordinates: [  0.331528994044671,  0.937736040815547,  0.401660324400436 ]
    mass: 204.383300
    reduced_to: 1
  - symbol: Tl # 8
    coordinates: [  0.664862327378004,  0.937736040815547,  0.401660324400436 ]
    mass: 204.383300
    reduced_to: 1
  - symbol: Tl # 9
    coordinates: [  0.998195660711338,  0.937736040815547,  0.401660324400436 ]
    mass: 204.383300
    reduced_to: 1
  - symbol: Tl # 10
    coordinates: [  0.331528994044671,  0.271069374148881,  0.901660324400436 ]
    mass: 204.383300
    reduced_to: 1
  - symbol: Tl # 11
    coordinates: [  0.664862327378004,  0.271069374148881,  0.901660324400436 ]
    mass: 204.383300
    reduced_to: 1
  - symbol: Tl # 12
    coordinates: [  0.998195660711338,  0.271069374148881,  0.901660324400436 ]
    mass: 204.383300
    reduced_to: 1
  - symbol: Tl # 13
    coordinates: [  0.331528994044671,  0.604402707482214,  0.901660324400436 ]
    mass: 204.383300
    reduced_to: 1
  - symbol: Tl # 14
    coordinates: [  0.664862327378004,  0.604402707482214,  0.901660324400436 ]
    mass: 204.383300
    reduced_to: 1
  - symbol: Tl # 15
    coordinates: [  0.998195660711338,  0.604402707482214,  0.901660324400436 ]
    mass: 204.383300
    reduced_to: 1
  - symbol: Tl # 16
    coordinates: [  0.331528994044671,  0.937736040815547,  0.901660324400436 ]
    mass: 204.383300
    reduced_to: 1
  - symbol: Tl # 17
    coordinates: [  0.664862327378004,  0.937736040815547,  0.901660324400436 ]
    mass: 204.383300
    reduced_to: 1
  - symbol: Tl # 18
    coordinates: [  0.998195660711338,  0.937736040815547,  0.901660324400436 ]
    mass: 204.383300
    reduced_to: 1
  - symbol: Tl # 19
    coordinates: [  0.296027981489985,  0.227433203034074,  0.190157054986062 ]
    mass: 204.383300
    reduced_to: 19
  - symbol: Tl # 20
    coordinates: [  0.629361314823318,  0.227433203034074,  0.190157054986062 ]
    mass: 204.383300
    reduced_to: 19
  - symbol: Tl # 21
    coordinates: [  0.962694648156652,  0.227433203034074,  0.190157054986062 ]
    mass: 204.383300
    reduced_to: 19
  - symbol: Tl # 22
    coordinates: [  0.296027981489985,  0.560766536367407,  0.190157054986062 ]
    mass: 204.383300
    reduced_to: 19
  - symbol: Tl # 23
    coordinates: [  0.629361314823318,  0.560766536367407,  0.190157054986062 ]
    mass: 204.383300
    reduced_to: 19
  - symbol: Tl # 24
    coordinates: [  0.962694648156652,  0.560766536367407,  0.190157054986062 ]
    mass: 204.383300
    reduced_to: 19
  - symbol: Tl # 25
    coordinates: [  0.296027981489985,  0.894099869700740,  0.190157054986062 ]
    mass: 204.383300
    reduced_to: 19
  - symbol: Tl # 26
    coordinates: [  0.629361314823318,  0.894099869700740,  0.190157054986062 ]
    mass: 204.383300
    reduced_to: 19
  - symbol: Tl # 27
    coordinates: [  0.962694648156652,  0.894099869700740,  0.190157054986062 ]
    mass: 204.383300
    reduced_to: 19
  - symbol: Tl # 28
    coordinates: [  0.296027981489985,  0.227433203034074,  0.690157054986062 ]
    mass: 204.383300
    reduced_to: 19
  - symbol: Tl # 29
    coordinates: [  0.629361314823318,  0.227433203034074,  0.690157054986062 ]
    mass: 204.383300
    reduced_to: 19
  - symbol: Tl # 30
    coordinates: [  0.962694648156652,  0.227433203034074,  0.690157054986062 ]
    mass: 204.383300
    reduced_to: 19
  - symbol: Tl # 31
    coordinates: [  0.296027981489985,  0.560766536367407,  0.690157054986062 ]
    mass: 204.383300
    reduced_to: 19
  - symbol: Tl # 32
    coordinates: [  0.629361314823318,  0.560766536367407,  0.690157054986062 ]
    mass: 204.383300
    reduced_to: 19
  - symbol: Tl # 33
    coordinates: [  0.962694648156652,  0.560766536367407,  0.690157054986062 ]
    mass: 204.383300
    reduced_to: 19
  - symbol: Tl # 34
    coordinates: [  0.296027981489985,  0.894099869700740,  0.690157054986062 ]
    mass: 204.383300
    reduced_to: 19
  - symbol: Tl # 35
    coordinates: [  0.629361314823318,  0.894099869700740,  0.690157054986062 ]
    mass: 204.383300
    reduced_to: 19
  - symbol: Tl # 36
    coordinates: [  0.962694648156652,  0.894099869700740,  0.690157054986062 ]
    mass: 204.383300
    reduced_to: 19
  - symbol: Tl # 37
    coordinates: [  0.062263959184453,  0.331528994044671,  0.026660324400436 ]
    mass: 204.383300
    reduced_to: 37
  - symbol: Tl # 38
    coordinates: [  0.395597292517786,  0.331528994044671,  0.026660324400436 ]
    mass: 204.383300
    reduced_to: 37
  - symbol: Tl # 39
    coordinates: [  0.728930625851119,  0.331528994044671,  0.026660324400436 ]
    mass: 204.383300
    reduced_to: 37
  - symbol: Tl # 40
    coordinates: [  0.062263959184453,  0.664862327378004,  0.026660324400436 ]
    mass: 204.383300
    reduced_to: 37
  - symbol: Tl # 41
    coordinates: [  0.395597292517786,  0.664862327378004,  0.026660324400436 ]
    mass: 204.383300
    reduced_to: 37
  - symbol: Tl # 42
    coordinates: [  0.728930625851119,  0.664862327378004,  0.026660324400436 ]
    mass: 204.383300
    reduced_to: 37
  - symbol: Tl # 43
    coordinates: [  0.062263959184453,  0.998195660711338,  0.026660324400436 ]
    mass: 204.383300
    reduced_to: 37
  - symbol: Tl # 44
    coordinates: [  0.395597292517786,  0.998195660711338,  0.026660324400436 ]
    mass: 204.383300
    reduced_to: 37
  - symbol: Tl # 45
    coordinates: [  0.728930625851119,  0.998195660711338,  0.026660324400436 ]
    mass: 204.383300
    reduced_to: 37
  - symbol: Tl # 46
    coordinates: [  0.062263959184453,  0.331528994044671,  0.526660324400436 ]
    mass: 204.383300
    reduced_to: 37
  - symbol: Tl # 47
    coordinates: [  0.395597292517786,  0.331528994044671,  0.526660324400436 ]
    mass: 204.383300
    reduced_to: 37
  - symbol: Tl # 48
    coordinates: [  0.728930625851119,  0.331528994044671,  0.526660324400436 ]
    mass: 204.383300
    reduced_to: 37
  - symbol: Tl # 49
    coordinates: [  0.062263959184453,  0.664862327378004,  0.526660324400436 ]
    mass: 204.383300
    reduced_to: 37
  - symbol: Tl # 50
    coordinates: [  0.395597292517786,  0.664862327378004,  0.526660324400436 ]
    mass: 204.383300
    reduced_to: 37
  - symbol: Tl # 51
    coordinates: [  0.728930625851119,  0.664862327378004,  0.526660324400436 ]
    mass: 204.383300
    reduced_to: 37
  - symbol: Tl # 52
    coordinates: [  0.062263959184453,  0.998195660711338,  0.526660324400436 ]
    mass: 204.383300
    reduced_to: 37
  - symbol: Tl # 53
    coordinates: [  0.395597292517786,  0.998195660711338,  0.526660324400436 ]
    mass: 204.383300
    reduced_to: 37
  - symbol: Tl # 54
    coordinates: [  0.728930625851119,  0.998195660711338,  0.526660324400436 ]
    mass: 204.383300
    reduced_to: 37
  - symbol: Tl # 55
    coordinates: [  0.057300736017389,  0.119744894585732,  0.285065465443005 ]
    mass: 204.383300
    reduced_to: 55
  - symbol: Tl # 56
    coordinates: [  0.390634069350722,  0.119744894585732,  0.285065465443005 ]
    mass: 204.383300
    reduced_to: 55
  - symbol: Tl # 57
    coordinates: [  0.723967402684055,  0.119744894585732,  0.285065465443005 ]
    mass: 204.383300
    reduced_to: 55
  - symbol: Tl # 58
    coordinates: [  0.057300736017389,  0.453078227919065,  0.285065465443005 ]
    mass: 204.383300
    reduced_to: 55
  - symbol: Tl # 59
    coordinates: [  0.390634069350722,  0.453078227919065,  0.285065465443005 ]
    mass: 204.383300
    reduced_to: 55
  - symbol: Tl # 60
    coordinates: [  0.723967402684055,  0.453078227919065,  0.285065465443005 ]
    mass: 204.383300
    reduced_to: 55
  - symbol: Tl # 61
    coordinates: [  0.057300736017389,  0.786411561252399,  0.285065465443005 ]
    mass: 204.383300
    reduced_to: 55
  - symbol: Tl # 62
    coordinates: [  0.390634069350722,  0.786411561252399,  0.285065465443005 ]
    mass: 204.383300
    reduced_to: 55
  - symbol: Tl # 63
    coordinates: [  0.723967402684055,  0.786411561252399,  0.285065465443005 ]
    mass: 204.383300
    reduced_to: 55
  - symbol: Tl # 64
    coordinates: [  0.057300736017389,  0.119744894585732,  0.785065465443005 ]
    mass: 204.383300
    reduced_to: 55
  - symbol: Tl # 65
    coordinates: [  0.390634069350722,  0.119744894585732,  0.785065465443005 ]
    mass: 204.383300
    reduced_to: 55
  - symbol: Tl # 66
    coordinates: [  0.723967402684055,  0.119744894585732,  0.785065465443005 ]
    mass: 204.383300
    reduced_to: 55
  - symbol: Tl # 67
    coordinates: [  0.057300736017389,  0.453078227919065,  0.785065465443005 ]
    mass: 204.383300
    reduced_to: 55
  - symbol: Tl # 68
    coordinates: [  0.390634069350722,  0.453078227919065,  0.785065465443005 ]
    mass: 204.383300
    reduced_to: 55
  - symbol: Tl # 69
    coordinates: [  0.723967402684055,  0.453078227919065,  0.785065465443005 ]
    mass: 204.383300
    reduced_to: 55
  - symbol: Tl # 70
    coordinates: [  0.057300736017389,  0.786411561252399,  0.785065465443005 ]
    mass: 204.383300
    reduced_to: 55
  - symbol: Tl # 71
    coordinates: [  0.390634069350722,  0.786411561252399,  0.785065465443005 ]
    mass: 204.383300
    reduced_to: 55
  - symbol: Tl # 72
    coordinates: [  0.723967402684055,  0.786411561252399,  0.785065465443005 ]
    mass: 204.383300
    reduced_to: 55
  - symbol: Tl # 73
    coordinates: [  0.227433203034074,  0.037305351843348,  0.065157054986062 ]
    mass: 204.383300
    reduced_to: 73
  - symbol: Tl # 74
    coordinates: [  0.560766536367407,  0.037305351843348,  0.065157054986062 ]
    mass: 204.383300
    reduced_to: 73
  - symbol: Tl # 75
    coordinates: [  0.894099869700740,  0.037305351843348,  0.065157054986062 ]
    mass: 204.383300
    reduced_to: 73
  - symbol: Tl # 76
    coordinates: [  0.227433203034074,  0.370638685176682,  0.065157054986062 ]
    mass: 204.383300
    reduced_to: 73
  - symbol: Tl # 77
    coordinates: [  0.560766536367407,  0.370638685176682,  0.065157054986062 ]
    mass: 204.383300
    reduced_to: 73
  - symbol: Tl # 78
    coordinates: [  0.894099869700740,  0.370638685176682,  0.065157054986062 ]
    mass: 204.383300
    reduced_to: 73
  - symbol: Tl # 79
    coordinates: [  0.227433203034074,  0.703972018510015,  0.065157054986062 ]
    mass: 204.383300
    reduced_to: 73
  - symbol: Tl # 80
    coordinates: [  0.560766536367407,  0.703972018510015,  0.065157054986062 ]
    mass: 204.383300
    reduced_to: 73
  - symbol: Tl # 81
    coordinates: [  0.894099869700740,  0.703972018510015,  0.065157054986062 ]
    mass: 204.383300
    reduced_to: 73
  - symbol: Tl # 82
    coordinates: [  0.227433203034074,  0.037305351843348,  0.565157054986062 ]
    mass: 204.383300
    reduced_to: 73
  - symbol: Tl # 83
    coordinates: [  0.560766536367407,  0.037305351843348,  0.565157054986062 ]
    mass: 204.383300
    reduced_to: 73
  - symbol: Tl # 84
    coordinates: [  0.894099869700740,  0.037305351843348,  0.565157054986062 ]
    mass: 204.383300
    reduced_to: 73
  - symbol: Tl # 85
    coordinates: [  0.227433203034074,  0.370638685176682,  0.565157054986062 ]
    mass: 204.383300
    reduced_to: 73
  - symbol: Tl # 86
    coordinates: [  0.560766536367407,  0.370638685176682,  0.565157054986062 ]
    mass: 204.383300
    reduced_to: 73
  - symbol: Tl # 87
    coordinates: [  0.894099869700740,  0.370638685176682,  0.565157054986062 ]
    mass: 204.383300
    reduced_to: 73
  - symbol: Tl # 88
    coordinates: [  0.227433203034074,  0.703972018510015,  0.565157054986062 ]
    mass: 204.383300
    reduced_to: 73
  - symbol: Tl # 89
    coordinates: [  0.560766536367407,  0.703972018510015,  0.565157054986062 ]
    mass: 204.383300
    reduced_to: 73
  - symbol: Tl # 90
    coordinates: [  0.894099869700740,  0.703972018510015,  0.565157054986062 ]
    mass: 204.383300
    reduced_to: 73
  - symbol: Tl # 91
    coordinates: [  0.119744894585732,  0.276032597315945,  0.160065465443005 ]
    mass: 204.383300
    reduced_to: 91
  - symbol: Tl # 92
    coordinates: [  0.453078227919065,  0.276032597315945,  0.160065465443005 ]
    mass: 204.383300
    reduced_to: 91
  - symbol: Tl # 93
    coordinates: [  0.786411561252399,  0.276032597315945,  0.160065465443005 ]
    mass: 204.383300
    reduced_to: 91
  - symbol: Tl # 94
    coordinates: [  0.119744894585732,  0.609365930649278,  0.160065465443005 ]
    mass: 204.383300
    reduced_to: 91
  - symbol: Tl # 95
    coordinates: [  0.453078227919065,  0.609365930649278,  0.160065465443005 ]
    mass: 204.383300
    reduced_to: 91
  - symbol: Tl # 96
    coordinates: [  0.786411561252399,  0.609365930649278,  0.160065465443005 ]
    mass: 204.383300
    reduced_to: 91
  - symbol: Tl # 97
    coordinates: [  0.119744894585732,  0.942699263982611,  0.160065465443005 ]
    mass: 204.383300
    reduced_to: 91
  - symbol: Tl # 98
    coordinates: [  0.453078227919065,  0.942699263982611,  0.160065465443005 ]
    mass: 204.383300
    reduced_to: 91
  - symbol: Tl # 99
    coordinates: [  0.786411561252399,  0.942699263982611,  0.160065465443005 ]
    mass: 204.383300
    reduced_to: 91
  - symbol: Tl # 100
    coordinates: [  0.119744894585732,  0.276032597315945,  0.660065465443005 ]
    mass: 204.383300
    reduced_to: 91
  - symbol: Tl # 101
    coordinates: [  0.453078227919065,  0.276032597315945,  0.660065465443005 ]
    mass: 204.383300
    reduced_to: 91
  - symbol: Tl # 102
    coordinates: [  0.786411561252399,  0.276032597315945,  0.660065465443005 ]
    mass: 204.383300
    reduced_to: 91
  - symbol: Tl # 103
    coordinates: [  0.119744894585732,  0.609365930649278,  0.660065465443005 ]
    mass: 204.383300
    reduced_to: 91
  - symbol: Tl # 104
    coordinates: [  0.453078227919065,  0.609365930649278,  0.660065465443005 ]
    mass: 204.383300
    reduced_to: 91
  - symbol: Tl # 105
    coordinates: [  0.786411561252399,  0.609365930649278,  0.660065465443005 ]
    mass: 204.383300
    reduced_to: 91
  - symbol: Tl # 106
    coordinates: [  0.119744894585732,  0.942699263982611,  0.660065465443005 ]
    mass: 204.383300
    reduced_to: 91
  - symbol: Tl # 107
    coordinates: [  0.453078227919065,  0.942699263982611,  0.660065465443005 ]
    mass: 204.383300
    reduced_to: 91
  - symbol: Tl # 108
    coordinates: [  0.786411561252399,  0.942699263982611,  0.660065465443005 ]
    mass: 204.383300
    reduced_to: 91
  - symbol: Tl # 109
    coordinates: [  0.037305351843348,  0.105900130299260,  0.440157054986062 ]
    mass: 204.383300
    reduced_to: 109
  - symbol: Tl # 110
    coordinates: [  0.370638685176682,  0.105900130299260,  0.440157054986062 ]
    mass: 204.383300
    reduced_to: 109
  - symbol: Tl # 111
    coordinates: [  0.703972018510015,  0.105900130299260,  0.440157054986062 ]
    mass: 204.383300
    reduced_to: 109
  - symbol: Tl # 112
    coordinates: [  0.037305351843348,  0.439233463632593,  0.440157054986062 ]
    mass: 204.383300
    reduced_to: 109
  - symbol: Tl # 113
    coordinates: [  0.370638685176682,  0.439233463632593,  0.440157054986062 ]
    mass: 204.383300
    reduced_to: 109
  - symbol: Tl # 114
    coordinates: [  0.703972018510015,  0.439233463632593,  0.440157054986062 ]
    mass: 204.383300
    reduced_to: 109
  - symbol: Tl # 115
    coordinates: [  0.037305351843348,  0.772566796965926,  0.440157054986062 ]
    mass: 204.383300
    reduced_to: 109
  - symbol: Tl # 116
    coordinates: [  0.370638685176682,  0.772566796965926,  0.440157054986062 ]
    mass: 204.383300
    reduced_to: 109
  - symbol: Tl # 117
    coordinates: [  0.703972018510015,  0.772566796965926,  0.440157054986062 ]
    mass: 204.383300
    reduced_to: 109
  - symbol: Tl # 118
    coordinates: [  0.037305351843348,  0.105900130299260,  0.940157054986062 ]
    mass: 204.383300
    reduced_to: 109
  - symbol: Tl # 119
    coordinates: [  0.370638685176682,  0.105900130299260,  0.940157054986062 ]
    mass: 204.383300
    reduced_to: 109
  - symbol: Tl # 120
    coordinates: [  0.703972018510015,  0.105900130299260,  0.940157054986062 ]
    mass: 204.383300
    reduced_to: 109
  - symbol: Tl # 121
    coordinates: [  0.037305351843348,  0.439233463632593,  0.940157054986062 ]
    mass: 204.383300
    reduced_to: 109
  - symbol: Tl # 122
    coordinates: [  0.370638685176682,  0.439233463632593,  0.940157054986062 ]
    mass: 204.383300
    reduced_to: 109
  - symbol: Tl # 123
    coordinates: [  0.703972018510015,  0.439233463632593,  0.940157054986062 ]
    mass: 204.383300
    reduced_to: 109
  - symbol: Tl # 124
    coordinates: [  0.037305351843348,  0.772566796965926,  0.940157054986062 ]
    mass: 204.383300
    reduced_to: 109
  - symbol: Tl # 125
    coordinates: [  0.370638685176682,  0.772566796965926,  0.940157054986062 ]
    mass: 204.383300
    reduced_to: 109
  - symbol: Tl # 126
    coordinates: [  0.703972018510015,  0.772566796965926,  0.940157054986062 ]
    mass: 204.383300
    reduced_to: 109
  - symbol: Tl # 127
    coordinates: [  0.001804339288662,  0.062263959184453,  0.151660324400436 ]
    mass: 204.383300
    reduced_to: 127
  - symbol: Tl # 128
    coordinates: [  0.335137672621996,  0.062263959184453,  0.151660324400436 ]
    mass: 204.383300
    reduced_to: 127
  - symbol: Tl # 129
    coordinates: [  0.668471005955329,  0.062263959184453,  0.151660324400436 ]
    mass: 204.383300
    reduced_to: 127
  - symbol: Tl # 130
    coordinates: [  0.001804339288662,  0.395597292517786,  0.151660324400436 ]
    mass: 204.383300
    reduced_to: 127
  - symbol: Tl # 131
    coordinates: [  0.335137672621996,  0.395597292517786,  0.151660324400436 ]
    mass: 204.383300
    reduced_to: 127
  - symbol: Tl # 132
    coordinates: [  0.668471005955329,  0.395597292517786,  0.151660324400436 ]
    mass: 204.383300
    reduced_to: 127
  - symbol: Tl # 133
    coordinates: [  0.001804339288662,  0.728930625851119,  0.151660324400436 ]
    mass: 204.383300
    reduced_to: 127
  - symbol: Tl # 134
    coordinates: [  0.335137672621996,  0.728930625851119,  0.151660324400436 ]
    mass: 204.383300
    reduced_to: 127
  - symbol: Tl # 135
    coordinates: [  0.668471005955329,  0.728930625851119,  0.151660324400436 ]
    mass: 204.383300
    reduced_to: 127
  - symbol: Tl # 136
    coordinates: [  0.001804339288662,  0.062263959184453,  0.651660324400436 ]
    mass: 204.383300
    reduced_to: 127
  - symbol: Tl # 137