phonopy:
  version: "2.21.0"
  frequency_unit_conversion_factor: 15.633302
  symmetry_tolerance: 1.00000e-04

space_group:
  type: "P2_1/c"
  number: 14
  Hall_symbol: "-P 2ybc"

primitive_matrix:
- [ -1.000000000000000,  0.000000000000000,  0.000000000000000 ]
- [  0.000000000000000,  1.000000000000000,  0.000000000000000 ]
- [  0.000000000000000,  0.000000000000000, -1.000000000000000 ]

supercell_matrix:
- [   0,   2,   0 ]
- [   3,   0,   0 ]
- [   0,   0,  -2 ]

primitive_cell:
  lattice:
  - [     0.000000000000000,    -7.033034196562240,     0.006129926556011 ] # a
  - [    13.689250066246935,     0.000000000000000,     0.000000000000000 ] # b
  - [     0.000000000000000,     0.058804305945313,    16.018097451689226 ] # c
  points:
  - symbol: Ba # 1
    coordinates: [  0.524678500043154,  0.523228085433208,  0.253756502612136 ]
    mass: 137.327000
  - symbol: Ba # 2
    coordinates: [  0.475321499956846,  0.023228085433208,  0.246243497387864 ]
    mass: 137.327000
  - symbol: Ba # 3
    coordinates: [  0.475321499956846,  0.476771914566792,  0.746243497387864 ]
    mass: 137.327000
  - symbol: Ba # 4
    coordinates: [  0.524678500043154,  0.976771914566792,  0.753756502612136 ]
    mass: 137.327000
  - symbol: Ba # 5
    coordinates: [  0.022164138111894,  0.772114616177679,  0.739489950483271 ]
    mass: 137.327000
  - symbol: Ba # 6
    coordinates: [  0.977835861888106,  0.272114616177679,  0.760510049516728 ]
    mass: 137.327000
  - symbol: Ba # 7
    coordinates: [  0.977835861888106,  0.227885383822321,  0.260510049516728 ]
    mass: 137.327000
  - symbol: Ba # 8
    coordinates: [  0.022164138111894,  0.727885383822321,  0.239489950483271 ]
    mass: 137.327000
  - symbol: Ba # 9
    coordinates: [  0.253264031926367,  0.873817568124877,  0.492821264670352 ]
    mass: 137.327000
  - symbol: Ba # 10
    coordinates: [  0.746735968073633,  0.373817568124877,  0.007178735329648 ]
    mass: 137.327000
  - symbol: Ba # 11
    coordinates: [  0.746735968073633,  0.126182431875122,  0.507178735329647 ]
    mass: 137.327000
  - symbol: Ba # 12
    coordinates: [  0.253264031926367,  0.626182431875123,  0.992821264670352 ]
    mass: 137.327000
  - symbol: Ba # 13
    coordinates: [  0.754352884717308,  0.622721985979336,  0.494048850892470 ]
    mass: 137.327000
  - symbol: Ba # 14
    coordinates: [  0.245647115282692,  0.122721985979336,  0.005951149107529 ]
    mass: 137.327000
  - symbol: Ba # 15
    coordinates: [  0.245647115282692,  0.377278014020664,  0.505951149107529 ]
    mass: 137.327000
  - symbol: Ba # 16
    coordinates: [  0.754352884717308,  0.877278014020664,  0.994048850892470 ]
    mass: 137.327000
  - symbol: Sb # 17
    coordinates: [  0.244625342424223,  0.616906785862891,  0.418954911951797 ]
    mass: 121.760000
  - symbol: Sb # 18
    coordinates: [  0.755374657575777,  0.116906785862892,  0.081045088048203 ]
    mass: 121.760000
  - symbol: Sb # 19
    coordinates: [  0.755374657575777,  0.383093214137101,  0.581045088048203 ]
    mass: 121.760000
  - symbol: Sb # 20
    coordinates: [  0.244625342424223,  0.883093214137108,  0.918954911951796 ]
    mass: 121.760000
  - symbol: Sb # 21
    coordinates: [  0.001553905422894,  0.980525445394118,  0.169266507349344 ]
    mass: 121.760000
  - symbol: Sb # 22
    coordinates: [  0.998446094577106,  0.480525445394118,  0.330733492650656 ]
    mass: 121.760000
  - symbol: Sb # 23
    coordinates: [  0.998446094577106,  0.019474554605882,  0.830733492650656 ]
    mass: 121.760000
  - symbol: Sb # 24
    coordinates: [  0.001553905422894,  0.519474554605882,  0.669266507349344 ]
    mass: 121.760000
  - symbol: Sb # 25
    coordinates: [  0.899605901015027,  0.548435079355579,  0.844147911645161 ]
    mass: 121.760000
  - symbol: Sb # 26
    coordinates: [  0.100394098984973,  0.048435079355579,  0.655852088354838 ]
    mass: 121.760000
  - symbol: Sb # 27
    coordinates: [  0.100394098984973,  0.451564920644420,  0.155852088354838 ]
    mass: 121.760000
  - symbol: Sb # 28
    coordinates: [  0.899605901015027,  0.951564920644420,  0.344147911645161 ]
    mass: 121.760000
  - symbol: Sb # 29
    coordinates: [  0.589389305050747,  0.793152383445249,  0.337326238428209 ]
    mass: 121.760000
  - symbol: Sb # 30
    coordinates: [  0.410610694949253,  0.293152383445249,  0.162673761571791 ]
    mass: 121.760000
  - symbol: Sb # 31
    coordinates: [  0.410610694949253,  0.206847616554751,  0.662673761571791 ]
    mass: 121.760000
  - symbol: Sb # 32
    coordinates: [  0.589389305050747,  0.706847616554751,  0.837326238428209 ]
    mass: 121.760000
  - symbol: Sb # 33
    coordinates: [  0.743283138416630,  0.632859391606044,  0.070277863427633 ]
    mass: 121.760000
  - symbol: Sb # 34
    coordinates: [  0.256716861583371,  0.132859391606044,  0.429722136572367 ]
    mass: 121.760000
  - symbol: Sb # 35
    coordinates: [  0.256716861583371,  0.367140608393956,  0.929722136572366 ]
    mass: 121.760000
  - symbol: Sb # 36
    coordinates: [  0.743283138416630,  0.867140608393956,  0.570277863427633 ]
    mass: 121.760000
  - symbol: Sb # 37
    coordinates: [  0.494708331488165,  0.769328258236616,  0.160439835852313 ]
    mass: 121.760000
  - symbol: Sb # 38
    coordinates: [  0.505291668511835,  0.269328258236616,  0.339560164147687 ]
    mass: 121.760000
  - symbol: Sb # 39
    coordinates: [  0.505291668511835,  0.230671741763384,  0.839560164147687 ]
    mass: 121.760000
  - symbol: Sb # 40
    coordinates: [  0.494708331488165,  0.730671741763384,  0.660439835852319 ]
    mass: 121.760000
  reciprocal_lattice: # without 2pi
  - [     0.000000000000000,    -0.142185687194319,     0.000521980258644 ] # a*
  - [     0.073050020648367,    -0.000000000000000,     0.000000000000000 ] # b*
  - [     0.000000000000000,     0.000054412693046,     0.062429186944040 ] # c*

unit_cell:
  lattice:
  - [     0.000000000000000,     7.033034196562240,    -0.006129926556011 ] # a
  - [    13.689250066246933,     0.000000000000000,     0.000000000000000 ] # b
  - [     0.000000000000000,    -0.058804305945313,   -16.018097451689222 ] # c
  points:
  - symbol: Ba # 1
    coordinates: [  0.475321499956846,  0.523228085433208,  0.746243497387864 ]
    mass: 137.327000
    reduced_to: 1
  - symbol: Ba # 2
    coordinates: [  0.524678500043154,  0.023228085433208,  0.753756502612136 ]
    mass: 137.327000
    reduced_to: 2
  - symbol: Ba # 3
    coordinates: [  0.524678500043154,  0.476771914566792,  0.253756502612136 ]
    mass: 137.327000
    reduced_to: 3
  - symbol: Ba # 4
    coordinates: [  0.475321499956846,  0.976771914566792,  0.246243497387864 ]
    mass: 137.327000
    reduced_to: 4
  - symbol: Ba # 5
    coordinates: [  0.977835861888106,  0.772114616177679,  0.260510049516728 ]
    mass: 137.327000
    reduced_to: 5
  - symbol: Ba # 6
    coordinates: [  0.022164138111894,  0.272114616177679,  0.239489950483272 ]
    mass: 137.327000
    reduced_to: 6
  - symbol: Ba # 7
    coordinates: [  0.022164138111894,  0.227885383822321,  0.739489950483272 ]
    mass: 137.327000
    reduced_to: 7
  - symbol: Ba # 8
    coordinates: [  0.977835861888106,  0.727885383822321,  0.760510049516728 ]
    mass: 137.327000
    reduced_to: 8
  - symbol: Ba # 9
    coordinates: [  0.746735968073633,  0.873817568124877,  0.507178735329648 ]
    mass: 137.327000
    reduced_to: 9
  - symbol: Ba # 10
    coordinates: [  0.253264031926367,  0.373817568124877,  0.992821264670352 ]
    mass: 137.327000
    reduced_to: 10
  - symbol: Ba # 11
    coordinates: [  0.253264031926367,  0.126182431875123,  0.492821264670353 ]
    mass: 137.327000
    reduced_to: 11
  - symbol: Ba # 12
    coordinates: [  0.746735968073633,  0.626182431875123,  0.007178735329648 ]
    mass: 137.327000
    reduced_to: 12
  - symbol: Ba # 13
    coordinates: [  0.245647115282692,  0.622721985979336,  0.505951149107529 ]
    mass: 137.327000
    reduced_to: 13
  - symbol: Ba # 14
    coordinates: [  0.754352884717308,  0.122721985979336,  0.994048850892471 ]
    mass: 137.327000
    reduced_to: 14
  - symbol: Ba # 15
    coordinates: [  0.754352884717308,  0.377278014020664,  0.494048850892471 ]
    mass: 137.327000
    reduced_to: 15
  - symbol: Ba # 16
    coordinates: [  0.245647115282692,  0.877278014020664,  0.005951149107529 ]
    mass: 137.327000
    reduced_to: 16
  - symbol: Sb # 17
    coordinates: [  0.755374657575777,  0.616906785862892,  0.581045088048203 ]
    mass: 121.760000
    reduced_to: 17
  - symbol: Sb # 18
    coordinates: [  0.244625342424223,  0.116906785862892,  0.918954911951797 ]
    mass: 121.760000
    reduced_to: 18
  - symbol: Sb # 19
    coordinates: [  0.244625342424223,  0.383093214137101,  0.418954911951797 ]
    mass: 121.760000
    reduced_to: 19
  - symbol: Sb # 20
    coordinates: [  0.755374657575777,  0.883093214137108,  0.081045088048203 ]
    mass: 121.760000
    reduced_to: 20
  - symbol: Sb # 21
    coordinates: [  0.998446094577106,  0.980525445394118,  0.830733492650656 ]
    mass: 121.760000
    reduced_to: 21
  - symbol: Sb # 22
    coordinates: [  0.001553905422894,  0.480525445394118,  0.669266507349344 ]
    mass: 121.760000
    reduced_to: 22
  - symbol: Sb # 23
    coordinates: [  0.001553905422894,  0.019474554605882,  0.169266507349344 ]
    mass: 121.760000
    reduced_to: 23
  - symbol: Sb # 24
    coordinates: [  0.998446094577106,  0.519474554605882,  0.330733492650656 ]
    mass: 121.760000
    reduced_to: 24
  - symbol: Sb # 25
    coordinates: [  0.100394098984972,  0.548435079355579,  0.155852088354838 ]
    mass: 121.760000
    reduced_to: 25
  - symbol: Sb # 26
    coordinates: [  0.899605901015027,  0.048435079355579,  0.344147911645162 ]
    mass: 121.760000
    reduced_to: 26
  - symbol: Sb # 27
    coordinates: [  0.899605901015027,  0.451564920644421,  0.844147911645162 ]
    mass: 121.760000
    reduced_to: 27
  - symbol: Sb # 28
    coordinates: [  0.100394098984972,  0.951564920644421,  0.655852088354838 ]
    mass: 121.760000
    reduced_to: 28
  - symbol: Sb # 29
    coordinates: [  0.410610694949253,  0.793152383445249,  0.662673761571791 ]
    mass: 121.760000
    reduced_to: 29
  - symbol: Sb # 30
    coordinates: [  0.589389305050747,  0.293152383445249,  0.837326238428209 ]
    mass: 121.760000
    reduced_to: 30
  - symbol: Sb # 31
    coordinates: [  0.589389305050747,  0.206847616554751,  0.337326238428209 ]
    mass: 121.760000
    reduced_to: 31
  - symbol: Sb # 32
    coordinates: [  0.410610694949253,  0.706847616554751,  0.162673761571791 ]
    mass: 121.760000
    reduced_to: 32
  - symbol: Sb # 33
    coordinates: [  0.256716861583370,  0.632859391606044,  0.929722136572367 ]
    mass: 121.760000
    reduced_to: 33
  - symbol: Sb # 34
    coordinates: [  0.743283138416629,  0.132859391606044,  0.570277863427633 ]
    mass: 121.760000
    reduced_to: 34
  - symbol: Sb # 35
    coordinates: [  0.743283138416629,  0.367140608393956,  0.070277863427633 ]
    mass: 121.760000
    reduced_to: 35
  - symbol: Sb # 36
    coordinates: [  0.256716861583370,  0.867140608393956,  0.429722136572367 ]
    mass: 121.760000
    reduced_to: 36
  - symbol: Sb # 37
    coordinates: [  0.505291668511835,  0.769328258236616,  0.839560164147687 ]
    mass: 121.760000
    reduced_to: 37
  - symbol: Sb # 38
    coordinates: [  0.494708331488165,  0.269328258236616,  0.660439835852313 ]
    mass: 121.760000
    reduced_to: 38
  - symbol: Sb # 39
    coordinates: [  0.494708331488165,  0.230671741763384,  0.160439835852313 ]
    mass: 121.760000
    reduced_to: 39
  - symbol: Sb # 40
    coordinates: [  0.505291668511835,  0.730671741763384,  0.339560164147680 ]
    mass: 121.760000
    reduced_to: 40

supercell:
  lattice:
  - [    41.067750198740796,     0.000000000000000,     0.000000000000000 ] # a
  - [     0.000000000000000,    14.066068393124480,    -0.012259853112022 ] # b
  - [     0.000000000000000,     0.117608611890626,    32.036194903378444 ] # c
  points:
  - symbol: Ba # 1
    coordinates: [  0.174409361811069,  0.237660749978423,  0.626878251306068 ]
    mass: 137.327000
    reduced_to: 1
  - symbol: Ba # 2
    coordinates: [  0.174409361811069,  0.737660749978423,  0.626878251306068 ]
    mass: 137.327000
    reduced_to: 1
  - symbol: Ba # 3
    coordinates: [  0.507742695144403,  0.237660749978423,  0.626878251306068 ]
    mass: 137.327000
    reduced_to: 1
  - symbol: Ba # 4
    coordinates: [  0.507742695144403,  0.737660749978423,  0.626878251306068 ]
    mass: 137.327000
    reduced_to: 1
  - symbol: Ba # 5
    coordinates: [  0.841076028477736,  0.237660749978423,  0.626878251306068 ]
    mass: 137.327000
    reduced_to: 1
  - symbol: Ba # 6
    coordinates: [  0.841076028477736,  0.737660749978423,  0.626878251306068 ]
    mass: 137.327000
    reduced_to: 1
  - symbol: Ba # 7
    coordinates: [  0.174409361811069,  0.237660749978423,  0.126878251306068 ]
    mass: 137.327000
    reduced_to: 1
  - symbol: Ba # 8
    coordinates: [  0.174409361811069,  0.737660749978423,  0.126878251306068 ]
    mass: 137.327000
    reduced_to: 1
  - symbol: Ba # 9
    coordinates: [  0.507742695144403,  0.237660749978423,  0.126878251306068 ]
    mass: 137.327000
    reduced_to: 1
  - symbol: Ba # 10
    coordinates: [  0.507742695144403,  0.737660749978423,  0.126878251306068 ]
    mass: 137.327000
    reduced_to: 1
  - symbol: Ba # 11
    coordinates: [  0.841076028477736,  0.237660749978423,  0.126878251306068 ]
    mass: 137.327000
    reduced_to: 1
  - symbol: Ba # 12
    coordinates: [  0.841076028477736,  0.737660749978423,  0.126878251306068 ]
    mass: 137.327000
    reduced_to: 1
  - symbol: Ba # 13
    coordinates: [  0.007742695144403,  0.262339250021577,  0.623121748693932 ]
    mass: 137.327000
    reduced_to: 13
  - symbol: Ba # 14
    coordinates: [  0.007742695144403,  0.762339250021577,  0.623121748693932 ]
    mass: 137.327000
    reduced_to: 13
  - symbol: Ba # 15
    coordinates: [  0.341076028477736,  0.262339250021577,  0.623121748693932 ]
    mass: 137.327000
    reduced_to: 13
  - symbol: Ba # 16
    coordinates: [  0.341076028477736,  0.762339250021577,  0.623121748693932 ]
    mass: 137.327000
    reduced_to: 13
  - symbol: Ba # 17
    coordinates: [  0.674409361811069,  0.262339250021577,  0.623121748693932 ]
    mass: 137.327000
    reduced_to: 13
  - symbol: Ba # 18
    coordinates: [  0.674409361811069,  0.762339250021577,  0.623121748693932 ]
    mass: 137.327000
    reduced_to: 13
  - symbol: Ba # 19
    coordinates: [  0.007742695144403,  0.262339250021577,  0.123121748693932 ]
    mass: 137.327000
    reduced_to: 13
  - symbol: Ba # 20
    coordinates: [  0.007742695144403,  0.762339250021577,  0.123121748693932 ]
    mass: 137.327000
    reduced_to: 13
  - symbol: Ba # 21
    coordinates: [  0.341076028477736,  0.262339250021577,  0.123121748693932 ]
    mass: 137.327000
    reduced_to: 13
  - symbol: Ba # 22
    coordinates: [  0.341076028477736,  0.762339250021577,  0.123121748693932 ]
    mass: 137.327000
    reduced_to: 13
  - symbol: Ba # 23
    coordinates: [  0.674409361811069,  0.262339250021577,  0.123121748693932 ]
    mass: 137.327000
    reduced_to: 13
  - symbol: Ba # 24
    coordinates: [  0.674409361811069,  0.762339250021577,  0.123121748693932 ]
    mass: 137.327000
    reduced_to: 13
  - symbol: Ba # 25
    coordinates: [  0.158923971522264,  0.262339250021577,  0.873121748693932 ]
    mass: 137.327000
    reduced_to: 25
  - symbol: Ba # 26
    coordinates: [  0.158923971522264,  0.762339250021577,  0.873121748693932 ]
    mass: 137.327000
    reduced_to: 25
  - symbol: Ba # 27
    coordinates: [  0.492257304855597,  0.262339250021577,  0.873121748693932 ]
    mass: 137.327000
    reduced_to: 25
  - symbol: Ba # 28
    coordinates: [  0.492257304855597,  0.762339250021577,  0.873121748693932 ]
    mass: 137.327000
    reduced_to: 25
  - symbol: Ba # 29
    coordinates: [  0.825590638188931,  0.262339250021577,  0.873121748693932 ]
    mass: 137.327000
    reduced_to: 25
  - symbol: Ba # 30
    coordinates: [  0.825590638188931,  0.762339250021577,  0.873121748693932 ]
    mass: 137.327000
    reduced_to: 25
  - symbol: Ba # 31
    coordinates: [  0.158923971522264,  0.262339250021577,  0.373121748693932 ]
    mass: 137.327000
    reduced_to: 25
  - symbol: Ba # 32
    coordinates: [  0.158923971522264,  0.762339250021577,  0.373121748693932 ]
    mass: 137.327000
    reduced_to: 25
  - symbol: Ba # 33
    coordinates: [  0.492257304855597,  0.262339250021577,  0.373121748693932 ]
    mass: 137.327000
    reduced_to: 25
  - symbol: Ba # 34
    coordinates: [  0.492257304855597,  0.762339250021577,  0.373121748693932 ]
    mass: 137.327000
    reduced_to: 25
  - symbol: Ba # 35
    coordinates: [  0.825590638188931,  0.262339250021577,  0.373121748693932 ]
    mass: 137.327000
    reduced_to: 25
  - symbol: Ba # 36
    coordinates: [  0.825590638188931,  0.762339250021577,  0.373121748693932 ]
    mass: 137.327000
    reduced_to: 25
  - symbol: Ba # 37
    coordinates: [  0.325590638188931,  0.237660749978423,  0.876878251306068 ]
    mass: 137.327000
    reduced_to: 37
  - symbol: Ba # 38
    coordinates: [  0.325590638188931,  0.737660749978423,  0.876878251306068 ]
    mass: 137.327000
    reduced_to: 37
  - symbol: Ba # 39
    coordinates: [  0.658923971522264,  0.237660749978423,  0.876878251306068 ]
    mass: 137.327000
    reduced_to: 37
  - symbol: Ba # 40
    coordinates: [  0.658923971522264,  0.737660749978423,  0.876878251306068 ]
    mass: 137.327000
    reduced_to: 37
  - symbol: Ba # 41
    coordinates: [  0.992257304855597,  0.237660749978423,  0.876878251306068 ]
    mass: 137.327000
    reduced_to: 37
  - symbol: Ba # 42
    coordinates: [  0.992257304855597,  0.737660749978423,  0.876878251306068 ]
    mass: 137.327000
    reduced_to: 37
  - symbol: Ba # 43
    coordinates: [  0.325590638188931,  0.237660749978423,  0.376878251306068 ]
    mass: 137.327000
    reduced_to: 37
  - symbol: Ba # 44
    coordinates: [  0.325590638188931,  0.737660749978423,  0.376878251306068 ]
    mass: 137.327000
    reduced_to: 37
  - symbol: Ba # 45
    coordinates: [  0.658923971522264,  0.237660749978423,  0.376878251306068 ]
    mass: 137.327000
    reduced_to: 37
  - symbol: Ba # 46
    coordinates: [  0.658923971522264,  0.737660749978423,  0.376878251306068 ]
    mass: 137.327000
    reduced_to: 37
  - symbol: Ba # 47
    coordinates: [  0.992257304855597,  0.237660749978423,  0.376878251306068 ]
    mass: 137.327000
    reduced_to: 37
  - symbol: Ba # 48
    coordinates: [  0.992257304855597,  0.737660749978423,  0.376878251306068 ]
    mass: 137.327000
    reduced_to: 37
  - symbol: Ba # 49
    coordinates: [  0.257371538725893,  0.488917930944053,  0.869744975241636 ]
    mass: 137.327000
    reduced_to: 49
  - symbol: Ba # 50
    coordinates: [  0.257371538725893,  0.988917930944053,  0.869744975241636 ]
    mass: 137.327000
    reduced_to: 49
  - symbol: Ba # 51
    coordinates: [  0.590704872059226,  0.488917930944053,  0.869744975241636 ]
    mass: 137.327000
    reduced_to: 49
  - symbol: Ba # 52
    coordinates: [  0.590704872059226,  0.988917930944053,  0.869744975241636 ]
    mass: 137.327000
    reduced_to: 49
  - symbol: Ba # 53
    coordinates: [  0.924038205392560,  0.488917930944053,  0.869744975241636 ]
    mass: 137.327000
    reduced_to: 49
  - symbol: Ba # 54
    coordinates: [  0.924038205392560,  0.988917930944053,  0.869744975241636 ]
    mass: 137.327000
    reduced_to: 49
  - symbol: Ba # 55
    coordinates: [  0.257371538725893,  0.488917930944053,  0.369744975241636 ]
    mass: 137.327000
    reduced_to: 49
  - symbol: Ba # 56
    coordinates: [  0.257371538725893,  0.988917930944053,  0.369744975241636 ]
    mass: 137.327000
    reduced_to: 49
  - symbol: Ba # 57
    coordinates: [  0.590704872059226,  0.488917930944053,  0.369744975241636 ]
    mass: 137.327000
    reduced_to: 49
  - symbol: Ba # 58
    coordinates: [  0.590704872059226,  0.988917930944053,  0.369744975241636 ]
    mass: 137.327000
    reduced_to: 49
  - symbol: Ba # 59
    coordinates: [  0.924038205392560,  0.488917930944053,  0.369744975241636 ]
    mass: 137.327000
    reduced_to: 49
  - symbol: Ba # 60
    coordinates: [  0.924038205392560,  0.988917930944053,  0.369744975241636 ]
    mass: 137.327000
    reduced_to: 49
  - symbol: Ba # 61
    coordinates: [  0.090704872059226,  0.011082069055947,  0.880255024758364 ]
    mass: 137.327000
    reduced_to: 61
  - symbol: Ba # 62
    coordinates: [  0.090704872059226,  0.511082069055947,  0.880255024758364 ]
    mass: 137.327000
    reduced_to: 61
  - symbol: Ba # 63
    coordinates: [  0.424038205392560,  0.011082069055947,  0.880255024758364 ]
    mass: 137.327000
    reduced_to: 61
  - symbol: Ba # 64
    coordinates: [  0.424038205392560,  0.511082069055947,  0.880255024758364 ]
    mass: 137.327000
    reduced_to: 61
  - symbol: Ba # 65
    coordinates: [  0.757371538725893,  0.011082069055947,  0.880255024758364 ]
    mass: 137.327000
    reduced_to: 61
  - symbol: Ba # 66
    coordinates: [  0.757371538725893,  0.511082069055947,  0.880255024758364 ]
    mass: 137.327000
    reduced_to: 61
  - symbol: Ba # 67
    coordinates: [  0.090704872059226,  0.011082069055947,  0.380255024758364 ]
    mass: 137.327000
    reduced_to: 61
  - symbol: Ba # 68
    coordinates: [  0.090704872059226,  0.511082069055947,  0.380255024758364 ]
    mass: 137.327000
    reduced_to: 61
  - symbol: Ba # 69
    coordinates: [  0.424038205392560,  0.011082069055947,  0.380255024758364 ]
    mass: 137.327000
    reduced_to: 61
  - symbol: Ba # 70
    coordinates: [  0.424038205392560,  0.511082069055947,  0.380255024758364 ]
    mass: 137.327000
    reduced_to: 61
  - symbol: Ba # 71
    coordinates: [  0.757371538725893,  0.011082069055947,  0.380255024758364 ]
    mass: 137.327000
    reduced_to: 61
  - symbol: Ba # 72
    coordinates: [  0.757371538725893,  0.511082069055947,  0.380255024758364 ]
    mass: 137.327000
    reduced_to: 61
  - symbol: Ba # 73
    coordinates: [  0.075961794607440,  0.011082069055947,  0.630255024758364 ]
    mass: 137.327000
    reduced_to: 73
  - symbol: Ba # 74
    coordinates: [  0.075961794607440,  0.511082069055947,  0.630255024758364 ]
    mass: 137.327000
    reduced_to: 73
  - symbol: Ba # 75
    coordinates: [  0.409295127940774,  0.011082069055947,  0.630255024758364 ]
    mass: 137.327000
    reduced_to: 73
  - symbol: Ba # 76
    coordinates: [  0.409295127940774,  0.511082069055947,  0.630255024758364 ]
    mass: 137.327000
    reduced_to: 73
  - symbol: Ba # 77
    coordinates: [  0.742628461274107,  0.011082069055947,  0.630255024758364 ]
    mass: 137.327000
    reduced_to: 73
  - symbol: Ba # 78
    coordinates: [  0.742628461274107,  0.511082069055947,  0.630255024758364 ]
    mass: 137.327000
    reduced_to: 73
  - symbol: Ba # 79
    coordinates: [  0.075961794607440,  0.011082069055947,  0.130255024758364 ]
    mass: 137.327000
    reduced_to: 73
  - symbol: Ba # 80
    coordinates: [  0.075961794607440,  0.511082069055947,  0.130255024758364 ]
    mass: 137.327000
    reduced_to: 73
  - symbol: Ba # 81
    coordinates: [  0.409295127940774,  0.011082069055947,  0.130255024758364 ]
    mass: 137.327000
    reduced_to: 73
  - symbol: Ba # 82
    coordinates: [  0.409295127940774,  0.511082069055947,  0.130255024758364 ]
    mass: 137.327000
    reduced_to: 73
  - symbol: Ba # 83
    coordinates: [  0.742628461274107,  0.011082069055947,  0.130255024758364 ]
    mass: 137.327000
    reduced_to: 73
  - symbol: Ba # 84
    coordinates: [  0.742628461274107,  0.511082069055947,  0.130255024758364 ]
    mass: 137.327000
    reduced_to: 73
  - symbol: Ba # 85
    coordinates: [  0.242628461274107,  0.488917930944053,  0.619744975241636 ]
    mass: 137.327000
    reduced_to: 85
  - symbol: Ba # 86
    coordinates: [  0.242628461274107,  0.988917930944053,  0.619744975241636 ]
    mass: 137.327000
    reduced_to: 85
  - symbol: Ba # 87
    coordinates: [  0.575961794607440,  0.488917930944053,  0.619744975241636 ]
    mass: 137.327000
    reduced_to: 85
  - symbol: Ba # 88
    coordinates: [  0.575961794607440,  0.988917930944053,  0.619744975241636 ]
    mass: 137.327000
    reduced_to: 85
  - symbol: Ba # 89
    coordinates: [  0.909295127940773,  0.488917930944053,  0.619744975241636 ]
    mass: 137.327000
    reduced_to: 85
  - symbol: Ba # 90
    coordinates: [  0.909295127940773,  0.988917930944053,  0.619744975241636 ]
    mass: 137.327000
    reduced_to: 85
  - symbol: Ba # 91
    coordinates: [  0.242628461274107,  0.488917930944053,  0.119744975241636 ]
    mass: 137.327000
    reduced_to: 85
  - symbol: Ba # 92
    coordinates: [  0.242628461274107,  0.988917930944053,  0.119744975241636 ]
    mass: 137.327000
    reduced_to: 85
  - symbol: Ba # 93
    coordinates: [  0.575961794607440,  0.488917930944053,  0.119744975241636 ]
    mass: 137.327000
    reduced_to: 85
  - symbol: Ba # 94
    coordinates: [  0.575961794607440,  0.988917930944053,  0.119744975241636 ]
    mass: 137.327000
    reduced_to: 85
  - symbol: Ba # 95
    coordinates: [  0.909295127940773,  0.488917930944053,  0.119744975241636 ]
    mass: 137.327000
    reduced_to: 85
  - symbol: Ba # 96
    coordinates: [  0.909295127940773,  0.988917930944053,  0.119744975241636 ]
    mass: 137.327000
    reduced_to: 85
  - symbol: Ba # 97
    coordinates: [  0.291272522708292,  0.373367984036817,  0.746410632335176 ]
    mass: 137.327000
    reduced_to: 97
  - symbol: Ba # 98
    coordinates: [  0.291272522708292,  0.873367984036816,  0.746410632335176 ]
    mass: 137.327000
    reduced_to: 97
  - symbol: Ba # 99
    coordinates: [  0.624605856041626,  0.373367984036817,  0.746410632335176 ]
    mass: 137.327000
    reduced_to: 97
  - symbol: Ba # 100
    coordinates: [  0.624605856041626,  0.873367984036816,  0.746410632335176 ]
    mass: 137.327000
    reduced_to: 97
  - symbol: Ba # 101
    coordinates: [  0.957939189374959,  0.373367984036817,  0.746410632335176 ]
    mass: 137.327000
    reduced_to: 97
  - symbol: Ba # 102
    coordinates: [  0.957939189374959,  0.873367984036816,  0.746410632335176 ]
    mass: 137.327000
    reduced_to: 97
  - symbol: Ba # 103
    coordinates: [  0.291272522708292,  0.373367984036817,  0.246410632335176 ]
    mass: 137.327000
    reduced_to: 97
  - symbol: Ba # 104
    coordinates: [  0.291272522708292,  0.873367984036816,  0.246410632335176 ]
    mass: 137.327000
    reduced_to: 97
  - symbol: Ba # 105
    coordinates: [  0.624605856041626,  0.373367984036817,  0.246410632335176 ]
    mass: 137.327000
    reduced_to: 97
  - symbol: Ba # 106
    coordinates: [  0.624605856041626,  0.873367984036816,  0.246410632335176 ]
    mass: 137.327000
    reduced_to: 97
  - symbol: Ba # 107
    coordinates: [  0.957939189374959,  0.373367984036817,  0.246410632335176 ]
    mass: 137.327000
    reduced_to: 97
  - symbol: Ba # 108
    coordinates: [  0.957939189374959,  0.873367984036816,  0.246410632335176 ]
    mass: 137.327000
    reduced_to: 97
  - symbol: Ba # 109
    coordinates: [  0.124605856041626,  0.126632015963183,  0.503589367664824 ]
    mass: 137.327000
    reduced_to: 109
  - symbol: Ba # 110
    coordinates: [  0.124605856041626,  0.626632015963183,  0.503589367664824 ]
    mass: 137.327000
    reduced_to: 109
  - symbol: Ba # 111
    coordinates: [  0.457939189374959,  0.126632015963183,  0.503589367664824 ]
    mass: 137.327000
    reduced_to: 109
  - symbol: Ba # 112
    coordinates: [  0.457939189374959,  0.626632015963183,  0.503589367664824 ]
    mass: 137.327000
    reduced_to: 109
  - symbol: Ba # 113
    coordinates: [  0.791272522708293,  0.126632015963183,  0.503589367664824 ]
    mass: 137.327000
    reduced_to: 109
  - symbol: Ba # 114
    coordinates: [  0.791272522708293,  0.626632015963183,  0.503589367664824 ]
    mass: 137.327000
    reduced_to: 109
  - symbol: Ba # 115
    coordinates: [  0.124605856041626,  0.126632015963183,  0.003589367664824 ]
    mass: 137.327000
    reduced_to: 109
  - symbol: Ba # 116
    coordinates: [  0.124605856041626,  0.626632015963183,  0.003589367664824 ]
    mass: 137.327000
    reduced_to: 109
  - symbol: Ba # 117
    coordinates: [  0.457939189374959,  0.126632015963183,  0.003589367664824 ]
    mass: 137.327000
    reduced_to: 109
  - symbol: Ba # 118
    coordinates: [  0.457939189374959,  0.626632015963183,  0.003589367664824 ]
    mass: 137.327000
    reduced_to: 109
  - symbol: Ba # 119
    coordinates: [  0.791272522708293,  0.126632015963183,  0.003589367664824 ]
    mass: 137.327000
    reduced_to: 109
  - symbol: Ba # 120
    coordinates: [  0.791272522708293,  0.626632015963183,  0.003589367664824 ]
    mass: 137.327000
    reduced_to: 109
  - symbol: Ba # 121
    coordinates: [  0.042060810625041,  0.126632015963183,  0.753589367664824 ]
    mass: 137.327000
    reduced_to: 121
  - symbol: Ba # 122
    coordinates: [  0.042060810625041,  0.626632015963183,  0.753589367664824 ]
    mass: 137.327000
    reduced_to: 121
  - symbol: Ba # 123
    coordinates: [  0.375394143958374,  0.126632015963183,  0.753589367664824 ]
    mass: 137.327000
    reduced_to: 121
  - symbol: Ba # 124
    coordinates: [  0.375394143958374,  0.626632015963183,  0.753589367664824 ]
    mass: 137.327000
    reduced_to: 121
  - symbol: Ba # 125
    coordinates: [  0.708727477291707,  0.126632015963183,  0.753589367664824 ]
    mass: 137.327000
    reduced_to: 121
  - symbol: Ba # 126
    coordinates: [  0.708727477291707,  0.626632015963183,  0.753589367664824 ]
    mass: 137.327000
    reduced_to: 121
  - symbol: Ba # 127
    coordinates: [  0.042060810625041,  0.126632015963183,  0.253589367664824 ]
    mass: 137.327000
    reduced_to: 121
  - symbol: Ba # 128
    coordinates: [  0.042060810625041,  0.626632015963183,  0.253589367664824 ]
    mass: 137.327000
    reduced_to: 121
  - symbol: Ba # 129