phonopy:
  version: "2.27.0"
  frequency_unit_conversion_factor: 15.633302
  symmetry_tolerance: 1.00000e-03

space_group:
  type: "C2/m"
  number: 12
  Hall_symbol: "-C 2y"

primitive_matrix:
- [  0.000000000000000,  1.000000000000000, -0.666666666666667 ]
- [  1.000000000000000,  1.000000000000000, -1.333333333333334 ]
- [ -0.000000000000000,  0.000000000000000, -0.333333333333333 ]

supercell_matrix:
- [   5,  -3,   0 ]
- [   4,   3,   1 ]
- [   0,   0,   1 ]

primitive_cell:
  lattice:
  - [     2.373641715875540,     3.928408371625491,    -0.334130535692712 ] # a
  - [     4.588952276368534,     0.092243231547151,    -0.333524298656286 ] # b
  - [    -3.962155229650576,    -2.289232107876702,    -7.407553522206280 ] # c
  points:
  - symbol: Bi # 1
    coordinates: [  0.175751740749037,  0.175751891071297,  0.826125295275156 ]
    mass: 208.980400
  - symbol: Te # 2
    coordinates: [  0.675752292329920,  0.675752501406947,  0.326125017423309 ]
    mass: 127.600000
  - symbol: Te # 3
    coordinates: [  0.969756823771882,  0.969756573581519,  0.064197542679518 ]
    mass: 127.600000
  - symbol: Te # 4
    coordinates: [  0.381748178158600,  0.381748124717707,  0.588053030701164 ]
    mass: 127.600000
  reciprocal_lattice: # without 2pi
  - [    -0.010432498734286,     0.254640875774030,    -0.073114137853717 ] # a*
  - [     0.215345624677697,    -0.136330640504377,    -0.073052501321370 ] # b*
  - [    -0.009225337602188,    -0.005347745494285,    -0.128410216251886 ] # c*

unit_cell:
  lattice:
  - [     2.215310560492995,    -3.836165140078341,     0.000606237036425 ] # a
  - [     2.373641715875539,     3.928408371625491,    -0.334130535692712 ] # b
  - [    -2.038722295536425,    -1.173606882715179,    23.557970235316837 ] # c
  points:
  - symbol: Bi # 1
    coordinates: [  0.291668360887860,  0.583336571453459,  0.057958234908281 ]
    mass: 208.980400
    reduced_to: 1
  - symbol: Bi # 2
    coordinates: [ -0.041664064643137, -0.083328306943875,  0.391291659815867 ]
    mass: 208.980400
    reduced_to: 1
  - symbol: Bi # 3
    coordinates: [  0.624995924386087,  0.249991692237878,  0.724624361340247 ]
    mass: 208.980400
    reduced_to: 1
  - symbol: Te # 4
    coordinates: [  0.125002489791409,  0.250004770505789,  0.224624994192230 ]
    mass: 127.600000
    reduced_to: 4
  - symbol: Te # 5
    coordinates: [  0.593624878461842,  0.187250007114044,  0.311934152440161 ]
    mass: 127.600000
    reduced_to: 5
  - symbol: Te # 6
    coordinates: [  0.656379437583599,  0.312758928608088,  0.137315656432945 ]
    mass: 127.600000
    reduced_to: 6
  - symbol: Te # 7
    coordinates: [  0.791665815879127,  0.583331396983361,  0.557957975523877 ]
    mass: 127.600000
    reduced_to: 4
  - symbol: Te # 8
    coordinates: [  0.260284661484906,  0.520569455607755,  0.645266983607078 ]
    mass: 127.600000
    reduced_to: 5
  - symbol: Te # 9
    coordinates: [  0.323046820326326,  0.646093800769170,  0.470649072867089 ]
    mass: 127.600000
    reduced_to: 6
  - symbol: Te # 10
    coordinates: [  0.458332010708258,  0.916663740987073,  0.891291267946627 ]
    mass: 127.600000
    reduced_to: 4
  - symbol: Te # 11
    coordinates: [ -0.073042975251151, -0.146085634073628,  0.978600774261915 ]
    mass: 127.600000
    reduced_to: 5
  - symbol: Te # 12
    coordinates: [ -0.010293359615191, -0.020586423248989,  0.803981866663745 ]
    mass: 127.600000
    reduced_to: 6

supercell:
  lattice:
  - [    20.571119665967132,    -3.467192213889742,    -1.333490957588719 ] # a
  - [     0.474993466147631,    23.293720535111497,    -1.004210318187410 ] # b
  - [     0.334919420339114,     2.754801488910312,    23.223839699624126 ] # c
  points:
  - symbol: Bi # 1
    coordinates: [  0.090782966381449,  0.054082157006461,  0.057958234908281 ]
    mass: 208.980400
    reduced_to: 1
  - symbol: Bi # 2
    coordinates: [  0.201894077492560,  0.905934008858313,  0.057958234908281 ]
    mass: 208.980400
    reduced_to: 1
  - symbol: Bi # 3
    coordinates: [  0.313005188603671,  0.757785860710165,  0.057958234908281 ]
    mass: 208.980400
    reduced_to: 1
  - symbol: Bi # 4
    coordinates: [  0.424116299714782,  0.609637712562017,  0.057958234908281 ]
    mass: 208.980400
    reduced_to: 1
  - symbol: Bi # 5
    coordinates: [  0.535227410825893,  0.461489564413869,  0.057958234908281 ]
    mass: 208.980400
    reduced_to: 1
  - symbol: Bi # 6
    coordinates: [  0.646338521937004,  0.313341416265720,  0.057958234908281 ]
    mass: 208.980400
    reduced_to: 1
  - symbol: Bi # 7
    coordinates: [  0.757449633048115,  0.165193268117572,  0.057958234908281 ]
    mass: 208.980400
    reduced_to: 1
  - symbol: Bi # 8
    coordinates: [  0.868560744159226,  0.017045119969424,  0.057958234908281 ]
    mass: 208.980400
    reduced_to: 1
  - symbol: Bi # 9
    coordinates: [  0.201894077492560,  0.239267342191646,  0.057958234908281 ]
    mass: 208.980400
    reduced_to: 1
  - symbol: Bi # 10
    coordinates: [  0.313005188603671,  0.091119194043498,  0.057958234908281 ]
    mass: 208.980400
    reduced_to: 1
  - symbol: Bi # 11
    coordinates: [  0.424116299714782,  0.942971045895350,  0.057958234908281 ]
    mass: 208.980400
    reduced_to: 1
  - symbol: Bi # 12
    coordinates: [  0.535227410825893,  0.794822897747202,  0.057958234908281 ]
    mass: 208.980400
    reduced_to: 1
  - symbol: Bi # 13
    coordinates: [  0.646338521937004,  0.646674749599054,  0.057958234908281 ]
    mass: 208.980400
    reduced_to: 1
  - symbol: Bi # 14
    coordinates: [  0.757449633048115,  0.498526601450906,  0.057958234908281 ]
    mass: 208.980400
    reduced_to: 1
  - symbol: Bi # 15
    coordinates: [  0.868560744159226,  0.350378453302758,  0.057958234908281 ]
    mass: 208.980400
    reduced_to: 1
  - symbol: Bi # 16
    coordinates: [  0.979671855270338,  0.202230305154609,  0.057958234908281 ]
    mass: 208.980400
    reduced_to: 1
  - symbol: Bi # 17
    coordinates: [  0.313005188603671,  0.424452527376831,  0.057958234908281 ]
    mass: 208.980400
    reduced_to: 1
  - symbol: Bi # 18
    coordinates: [  0.424116299714782,  0.276304379228683,  0.057958234908281 ]
    mass: 208.980400
    reduced_to: 1
  - symbol: Bi # 19
    coordinates: [  0.535227410825893,  0.128156231080535,  0.057958234908281 ]
    mass: 208.980400
    reduced_to: 1
  - symbol: Bi # 20
    coordinates: [  0.646338521937004,  0.980008082932387,  0.057958234908281 ]
    mass: 208.980400
    reduced_to: 1
  - symbol: Bi # 21
    coordinates: [  0.757449633048115,  0.831859934784239,  0.057958234908281 ]
    mass: 208.980400
    reduced_to: 1
  - symbol: Bi # 22
    coordinates: [  0.868560744159226,  0.683711786636091,  0.057958234908281 ]
    mass: 208.980400
    reduced_to: 1
  - symbol: Bi # 23
    coordinates: [  0.979671855270338,  0.535563638487943,  0.057958234908281 ]
    mass: 208.980400
    reduced_to: 1
  - symbol: Bi # 24
    coordinates: [  0.090782966381449,  0.387415490339794,  0.057958234908281 ]
    mass: 208.980400
    reduced_to: 1
  - symbol: Bi # 25
    coordinates: [  0.979671855270338,  0.868896971821276,  0.057958234908281 ]
    mass: 208.980400
    reduced_to: 1
  - symbol: Bi # 26
    coordinates: [  0.090782966381449,  0.720748823673128,  0.057958234908281 ]
    mass: 208.980400
    reduced_to: 1
  - symbol: Bi # 27
    coordinates: [  0.201894077492560,  0.572600675524980,  0.057958234908281 ]
    mass: 208.980400
    reduced_to: 1
  - symbol: Bi # 28
    coordinates: [  0.942635107621902,  0.918279867584216,  0.391291659815867 ]
    mass: 208.980400
    reduced_to: 1
  - symbol: Bi # 29
    coordinates: [  0.053746218733013,  0.770131719436068,  0.391291659815867 ]
    mass: 208.980400
    reduced_to: 1
  - symbol: Bi # 30
    coordinates: [  0.164857329844125,  0.621983571287920,  0.391291659815867 ]
    mass: 208.980400
    reduced_to: 1
  - symbol: Bi # 31
    coordinates: [  0.275968440955236,  0.473835423139772,  0.391291659815867 ]
    mass: 208.980400
    reduced_to: 1
  - symbol: Bi # 32
    coordinates: [  0.387079552066347,  0.325687274991624,  0.391291659815867 ]
    mass: 208.980400
    reduced_to: 1
  - symbol: Bi # 33
    coordinates: [  0.498190663177458,  0.177539126843476,  0.391291659815867 ]
    mass: 208.980400
    reduced_to: 1
  - symbol: Bi # 34
    coordinates: [  0.609301774288569,  0.029390978695327,  0.391291659815867 ]
    mass: 208.980400
    reduced_to: 1
  - symbol: Bi # 35
    coordinates: [  0.720412885399680,  0.881242830547179,  0.391291659815867 ]
    mass: 208.980400
    reduced_to: 1
  - symbol: Bi # 36
    coordinates: [  0.053746218733013,  0.103465052769401,  0.391291659815867 ]
    mass: 208.980400
    reduced_to: 1
  - symbol: Bi # 37
    coordinates: [  0.164857329844125,  0.955316904621253,  0.391291659815867 ]
    mass: 208.980400
    reduced_to: 1
  - symbol: Bi # 38
    coordinates: [  0.275968440955236,  0.807168756473105,  0.391291659815867 ]
    mass: 208.980400
    reduced_to: 1
  - symbol: Bi # 39
    coordinates: [  0.387079552066347,  0.659020608324957,  0.391291659815867 ]
    mass: 208.980400
    reduced_to: 1
  - symbol: Bi # 40
    coordinates: [  0.498190663177458,  0.510872460176809,  0.391291659815867 ]
    mass: 208.980400
    reduced_to: 1
  - symbol: Bi # 41
    coordinates: [  0.609301774288569,  0.362724312028661,  0.391291659815867 ]
    mass: 208.980400
    reduced_to: 1
  - symbol: Bi # 42
    coordinates: [  0.720412885399680,  0.214576163880513,  0.391291659815867 ]
    mass: 208.980400
    reduced_to: 1
  - symbol: Bi # 43
    coordinates: [  0.831523996510791,  0.066428015732365,  0.391291659815867 ]
    mass: 208.980400
    reduced_to: 1
  - symbol: Bi # 44
    coordinates: [  0.164857329844125,  0.288650237954587,  0.391291659815867 ]
    mass: 208.980400
    reduced_to: 1
  - symbol: Bi # 45
    coordinates: [  0.275968440955236,  0.140502089806438,  0.391291659815867 ]
    mass: 208.980400
    reduced_to: 1
  - symbol: Bi # 46
    coordinates: [  0.387079552066347,  0.992353941658290,  0.391291659815867 ]
    mass: 208.980400
    reduced_to: 1
  - symbol: Bi # 47
    coordinates: [  0.498190663177458,  0.844205793510142,  0.391291659815867 ]
    mass: 208.980400
    reduced_to: 1
  - symbol: Bi # 48
    coordinates: [  0.609301774288569,  0.696057645361994,  0.391291659815867 ]
    mass: 208.980400
    reduced_to: 1
  - symbol: Bi # 49
    coordinates: [  0.720412885399680,  0.547909497213846,  0.391291659815867 ]
    mass: 208.980400
    reduced_to: 1
  - symbol: Bi # 50
    coordinates: [  0.831523996510791,  0.399761349065698,  0.391291659815867 ]
    mass: 208.980400
    reduced_to: 1
  - symbol: Bi # 51
    coordinates: [  0.942635107621902,  0.251613200917550,  0.391291659815867 ]
    mass: 208.980400
    reduced_to: 1
  - symbol: Bi # 52
    coordinates: [  0.831523996510791,  0.733094682399031,  0.391291659815867 ]
    mass: 208.980400
    reduced_to: 1
  - symbol: Bi # 53
    coordinates: [  0.942635107621902,  0.584946534250883,  0.391291659815867 ]
    mass: 208.980400
    reduced_to: 1
  - symbol: Bi # 54
    coordinates: [  0.053746218733014,  0.436798386102735,  0.391291659815867 ]
    mass: 208.980400
    reduced_to: 1
  - symbol: Bi # 55
    coordinates: [  0.016707028364858,  0.819513072479400,  0.724624361340247 ]
    mass: 208.980400
    reduced_to: 1
  - symbol: Bi # 56
    coordinates: [  0.127818139475969,  0.671364924331252,  0.724624361340247 ]
    mass: 208.980400
    reduced_to: 1
  - symbol: Bi # 57
    coordinates: [  0.238929250587080,  0.523216776183104,  0.724624361340247 ]
    mass: 208.980400
    reduced_to: 1
  - symbol: Bi # 58
    coordinates: [  0.350040361698191,  0.375068628034956,  0.724624361340247 ]
    mass: 208.980400
    reduced_to: 1
  - symbol: Bi # 59
    coordinates: [  0.461151472809302,  0.226920479886808,  0.724624361340247 ]
    mass: 208.980400
    reduced_to: 1
  - symbol: Bi # 60
    coordinates: [  0.572262583920413,  0.078772331738660,  0.724624361340247 ]
    mass: 208.980400
    reduced_to: 1
  - symbol: Bi # 61
    coordinates: [  0.683373695031524,  0.930624183590512,  0.724624361340247 ]
    mass: 208.980400
    reduced_to: 1
  - symbol: Bi # 62
    coordinates: [  0.794484806142635,  0.782476035442363,  0.724624361340247 ]
    mass: 208.980400
    reduced_to: 1
  - symbol: Bi # 63
    coordinates: [  0.127818139475969,  0.004698257664585,  0.724624361340247 ]
    mass: 208.980400
    reduced_to: 1
  - symbol: Bi # 64
    coordinates: [  0.238929250587080,  0.856550109516437,  0.724624361340247 ]
    mass: 208.980400
    reduced_to: 1
  - symbol: Bi # 65
    coordinates: [  0.350040361698191,  0.708401961368289,  0.724624361340247 ]
    mass: 208.980400
    reduced_to: 1
  - symbol: Bi # 66
    coordinates: [  0.461151472809302,  0.560253813220141,  0.724624361340247 ]
    mass: 208.980400
    reduced_to: 1
  - symbol: Bi # 67
    coordinates: [  0.572262583920413,  0.412105665071993,  0.724624361340247 ]
    mass: 208.980400
    reduced_to: 1
  - symbol: Bi # 68
    coordinates: [  0.683373695031524,  0.263957516923845,  0.724624361340247 ]
    mass: 208.980400
    reduced_to: 1
  - symbol: Bi # 69
    coordinates: [  0.794484806142635,  0.115809368775697,  0.724624361340247 ]
    mass: 208.980400
    reduced_to: 1
  - symbol: Bi # 70
    coordinates: [  0.905595917253747,  0.967661220627549,  0.724624361340247 ]
    mass: 208.980400
    reduced_to: 1
  - symbol: Bi # 71
    coordinates: [  0.238929250587080,  0.189883442849771,  0.724624361340247 ]
    mass: 208.980400
    reduced_to: 1
  - symbol: Bi # 72
    coordinates: [  0.350040361698191,  0.041735294701623,  0.724624361340247 ]
    mass: 208.980400
    reduced_to: 1
  - symbol: Bi # 73
    coordinates: [  0.461151472809302,  0.893587146553474,  0.724624361340247 ]
    mass: 208.980400
    reduced_to: 1
  - symbol: Bi # 74
    coordinates: [  0.572262583920413,  0.745438998405326,  0.724624361340247 ]
    mass: 208.980400
    reduced_to: 1
  - symbol: Bi # 75
    coordinates: [  0.683373695031524,  0.597290850257178,  0.724624361340247 ]
    mass: 208.980400
    reduced_to: 1
  - symbol: Bi # 76
    coordinates: [  0.794484806142636,  0.449142702109030,  0.724624361340247 ]
    mass: 208.980400
    reduced_to: 1
  - symbol: Bi # 77
    coordinates: [  0.905595917253747,  0.300994553960882,  0.724624361340247 ]
    mass: 208.980400
    reduced_to: 1
  - symbol: Bi # 78
    coordinates: [  0.016707028364858,  0.152846405812734,  0.724624361340247 ]
    mass: 208.980400
    reduced_to: 1
  - symbol: Bi # 79
    coordinates: [  0.905595917253747,  0.634327887294215,  0.724624361340247 ]
    mass: 208.980400
    reduced_to: 1
  - symbol: Bi # 80
    coordinates: [  0.016707028364858,  0.486179739146067,  0.724624361340247 ]
    mass: 208.980400
    reduced_to: 1
  - symbol: Bi # 81
    coordinates: [  0.127818139475969,  0.338031590997919,  0.724624361340247 ]
    mass: 208.980400
    reduced_to: 1
  - symbol: Te # 82
    coordinates: [  0.016709140678330,  0.986181071200080,  0.224624994192230 ]
    mass: 127.600000
    reduced_to: 82
  - symbol: Te # 83
    coordinates: [  0.127820251789441,  0.838032923051932,  0.224624994192230 ]
    mass: 127.600000
    reduced_to: 82
  - symbol: Te # 84
    coordinates: [  0.238931362900552,  0.689884774903784,  0.224624994192230 ]
    mass: 127.600000
    reduced_to: 82
  - symbol: Te # 85
    coordinates: [  0.350042474011663,  0.541736626755635,  0.224624994192230 ]
    mass: 127.600000
    reduced_to: 82
  - symbol: Te # 86
    coordinates: [  0.461153585122774,  0.393588478607487,  0.224624994192230 ]
    mass: 127.600000
    reduced_to: 82
  - symbol: Te # 87
    coordinates: [  0.572264696233885,  0.245440330459339,  0.224624994192230 ]
    mass: 127.600000
    reduced_to: 82
  - symbol: Te # 88
    coordinates: [  0.683375807344996,  0.097292182311191,  0.224624994192230 ]
    mass: 127.600000
    reduced_to: 82
  - symbol: Te # 89
    coordinates: [  0.794486918456108,  0.949144034163043,  0.224624994192230 ]
    mass: 127.600000
    reduced_to: 82
  - symbol: Te # 90
    coordinates: [  0.127820251789441,  0.171366256385265,  0.224624994192230 ]
    mass: 127.600000
    reduced_to: 82
  - symbol: Te # 91
    coordinates: [  0.238931362900552,  0.023218108237117,  0.224624994192230 ]
    mass: 127.600000
    reduced_to: 82
  - symbol: Te # 92
    coordinates: [  0.350042474011663,  0.875069960088969,  0.224624994192230 ]
    mass: 127.600000
    reduced_to: 82
  - symbol: Te # 93
    coordinates: [  0.461153585122774,  0.726921811940821,  0.224624994192230 ]
    mass: 127.600000
    reduced_to: 82
  - symbol: Te # 94
    coordinates: [  0.572264696233885,  0.578773663792672,  0.224624994192230 ]
    mass: 127.600000
    reduced_to: 82
  - symbol: Te # 95
    coordinates: [  0.683375807344996,  0.430625515644524,  0.224624994192230 ]
    mass: 127.600000
    reduced_to: 82
  - symbol: Te # 96
    coordinates: [  0.794486918456108,  0.282477367496376,  0.224624994192230 ]
    mass: 127.600000
    reduced_to: 82
  - symbol: Te # 97
    coordinates: [  0.905598029567219,  0.134329219348228,  0.224624994192230 ]
    mass: 127.600000
    reduced_to: 82
  - symbol: Te # 98
    coordinates: [  0.238931362900552,  0.356551441570450,  0.224624994192230 ]
    mass: 127.600000
    reduced_to: 82
  - symbol: Te # 99
    coordinates: [  0.350042474011663,  0.208403293422302,  0.224624994192230 ]
    mass: 127.600000
    reduced_to: 82
  - symbol: Te # 100
    coordinates: [  0.461153585122774,  0.060255145274154,  0.224624994192230 ]
    mass: 127.600000
    reduced_to: 82
  - symbol: Te # 101
    coordinates: [  0.572264696233885,  0.912106997126006,  0.224624994192230 ]
    mass: 127.600000
    reduced_to: 82
  - symbol: Te # 102
    coordinates: [  0.683375807344996,  0.763958848977858,  0.224624994192230 ]
    mass: 127.600000
    reduced_to: 82
  - symbol: Te # 103
    coordinates: [  0.794486918456108,  0.615810700829709,  0.224624994192230 ]
    mass: 127.600000
    reduced_to: 82
  - symbol: Te # 104
    coordinates: [  0.905598029567219,  0.467662552681561,  0.224624994192230 ]
    mass: 127.600000
    reduced_to: 82
  - symbol: Te # 105
    coordinates: [  0.016709140678330,  0.319514404533413,  0.224624994192230 ]
    mass: 127.600000
    reduced_to: 82
  - symbol: Te # 106
    coordinates: [  0.905598029567219,  0.800995886014895,  0.224624994192230 ]
    mass: 127.600000
    reduced_to: 82
  - symbol: Te # 107
    coordinates: [  0.016709140678330,  0.652847737866746,  0.224624994192230 ]
    mass: 127.600000
    reduced_to: 82
  - symbol: Te # 108
    coordinates: [  0.127820251789441,  0.504699589718598,  0.224624994192230 ]
    mass: 127.600000
    reduced_to: 82
  - symbol: Te # 109
    coordinates: [  0.052104525903970,  0.888965917019335,  0.311934152440161 ]
    mass: 127.600000
    reduced_to: 109
  - symbol: Te # 110
    coordinates: [  0.163215637015081,  0.740817768871187,  0.311934152440161 ]
    mass: 127.600000
    reduced_to: 109
  - symbol: Te # 111
    coordinates: [  0.274326748126192,  0.592669620723039,  0.311934152440161 ]
    mass: 127.600000
    reduced_to: 109
  - symbol: Te # 112
    coordinates: [  0.385437859237303,  0.444521472574891,  0.311934152440161 ]
    mass: 127.600000
    reduced_to: 109
  - symbol: Te # 113
    coordinates: [  0.496548970348414,  0.296373324426743,  0.311934152440161 ]
    mass: 127.600000
    reduced_to: 109
  - symbol: Te # 114
    coordinates: [  0.607660081459525,  0.148225176278595,  0.311934152440161 ]
    mass: 127.600000
    reduced_to: 109
  - symbol: Te # 115
    coordinates: [  0.718771192570636,  0.000077028130446,  0.311934152440161 ]
    mass: 127.600000
    reduced_to: 109
  - symbol: Te # 116
    coordinates: [  0.829882303681747,  0.851928879982298,  0.311934152440161 ]
    mass: 127.600000
    reduced_to: 109
  - symbol: Te # 117
    coordinates: [  0.163215637015081,  0.074151102204520,  0.311934152440161 ]
    mass: 127.600000
    reduced_to: 109
  - symbol: Te # 118
    coordinates: [  0.274326748126192,  0.926002954056372,  0.311934152440161 ]
    mass: 127.600000
    reduced_to: 109
  - symbol: Te # 119
    coordinates: [  0.385437859237303,  0.777854805908224,  0.311934152440161 ]
    mass: 127.600000
    reduced_to: 109
  - symbol: Te # 120
    coordinates: [  0.496548970348414,  0.629706657760076,  0.311934152440161 ]
    mass: 127.600000
    reduced_to: 109
  - symbol: Te # 121
    coordinates: [  0.607660081459525,  0.481558509611928,  0.311934152440161 ]
    mass: 127.600000
    reduced_to: 109
  - symbol: Te # 122
    coordinates: [  0.718771192570636,  0.333410361463780,  0.311934152440161 ]
    mass: 127.600000
    reduced_to: 109
  - symbol: Te # 123
    coordinates: [  0.829882303681747,  0.185262213315632,  0.311934152440161 ]
    mass: 127.600000
    reduced_to: 109
  - symbol: Te # 124
    coordinates: [  0.940993414792858,  0.037114065167483,  0.311934152440161 ]
    mass: 127.600000
    reduced_to: 109
  - symbol: Te # 125
    coordinates: [  0.274326748126192,  0.259336287389706,  0.311934152440161 ]
    mass: 127.600000
    reduced_to: 109
  - symbol: Te # 126
    coordinates: [  0.385437859237303,  0.111188139241557,  0.311934152440161 ]
    mass: 127.600000
    reduced_to: 109
  - symbol: Te # 127
    coordinates: [  0.496548970348414,  0.963039991093409,  0.311934152440161 ]
    mass: 127.600000
    reduced_to: 109
  - symbol: Te # 128
    coordinates: [  0.607660081459525,  0.814891842945261,  0.311934152440161 ]
    mass: 127.600000
    reduced_to: 109
  - symbol: Te # 129
    coordinates: [  0.718771192570636,  0.666743694797113,  0.311934152440161 ]
    mass: 127.600000
    reduced_to: 109
  - symbol: Te # 130
    coordinates: [  0.829882303681747,  0.518595546648965,  0.311934152440161 ]
    mass: 127.600000
    reduced_to: 109
  - symbol: Te # 131
    coordinates: [  0.940993414792858,  0.370447398500817,  0.311934152440161 ]
    mass: 127.600000
    reduced_to: 109
  - symbol: Te # 132
    coordinates: [  0.052104525903970,  0.222299250352669,  0.311934152440161 ]
    mass: 127.600000
    reduced_to: 109
  - symbol: Te # 133
    coordinates: [  0.940993414792858,  0.703780731834150,  0.311934152440161 ]
    mass: 127.600000
    reduced_to: 109
  - symbol: Te # 134
    coordinates: [  0.052104525903969,  0.555632583686002,  0.311934152440161 ]
    mass: 127.600000
    reduced_to: 109
  - symbol: Te # 135
    coordinates: [  0.163215637015081,  0.407484435537854,  0.311934152440161 ]
    mass: 127.600000
    reduced_to: 109
  - symbol: Te # 136
    coordinates: [  0.092424745528749,  0.935248096686716,  0.137315656432945 ]
    mass: 127.600000
    reduced_to: 136
  - symbol: Te # 137
    coordinates: [  0.203535856639860,  0.787099948538567,  0.137315656432945 ]
    mass: 127.600000
    reduced_to: 136
  - symbol: Te # 138
    coordinates: [  0.314646967750971,  0.638951800390419,  0.137315656432945 ]
    mass: 127.600000
    reduced_to: 136
  - symbol: Te # 139
    coordinates: [  0.425758078862083,  0.490803652242271,  0.137315656432945 ]
    mass: 127.600000
    reduced_to: 136
  - symbol: Te # 140
    coordinates: [  0.536869189973194,  0.342655504094123,  0.137315656432945 ]
    mass: 127.600000
    reduced_to: 136
  - symbol: Te # 141
    coordinates: [  0.647980301084305,  0.194507355945975,  0.137315656432945 ]
    mass: 127.600000
    reduced_to: 136
  - symbol: Te # 142
    coordinates: [  0.759091412195416,  0.046359207797827,  0.137315656432945 ]
    mass: 127.600000
    reduced_to: 136
  - symbol: Te # 143
    coordinates: [  0.870202523306527,  0.898211059649679,  0.137315656432945 ]
    mass: 127.600000
    reduced_to: 136
  - symbol: Te # 144
    coordinates: [  0.203535856639860,  0.120433281871901,  0.137315656432945 ]
    mass: 127.600000
    reduced_to: 136
  - symbol: Te # 145
    coordinates: [  0.314646967750971,  0.972285133723753,  0.137315656432945 ]
    mass: 127.600000
    reduced_to: 136
  - symbol: Te # 146
    coordinates: [  0.425758078862082,  0.824136985575604,  0.137315656432945 ]
    mass: 127.600000
    reduced_to: 136
  - symbol: Te # 147
    coordinates: [  0.536869189973194,  0.675988837427456,  0.137315656432945 ]
    mass: 127.600000
    reduced_to: 136
  - symbol: Te # 148
    coordinates: [  0.647980301084305,  0.527840689279308,  0.137315656432945 ]
    mass: 127.600000
    reduced_to: 136
  - symbol: Te # 149
    coordinates: [  0.759091412195416,  0.379692541131160,  0.137315656432945 ]
    mass: 127.600000
    reduced_to: 136
  - symbol: Te # 150
    coordinates: [  0.870202523306527,  0.231544392983012,  0.137315656432945 ]
    mass: 127.600000
    reduced_to: 136
  - symbol: Te # 151
    coordinates: [  0.981313634417638,  0.083396244834864,  0.137315656432945 ]
    mass: 127.600000
    reduced_to: 136
  - symbol: Te # 152
    coordinates: [  0.314646967750971,  0.305618467057086,  0.137315656432945 ]
    mass: 127.600000
    reduced_to: 136
  - symbol: Te # 153
    coordinates: [  0.425758078862082,  0.157470318908938,  0.137315656432945 ]
    mass: 127.600000
    reduced_to: 136
  - symbol: Te # 154
    coordinates: [  0.536869189973194,  0.009322170760790,  0.137315656432945 ]
    mass: 127.600000
    reduced_to: 136
  - symbol: Te # 155
    coordinates: [  0.647980301084305,  0.861174022612642,  0.137315656432945 ]
    mass: 127.600000
    reduced_to: 136
  - symbol: Te # 156
    coordinates: [  0.759091412195416,  0.713025874464493,  0.137315656432945 ]
    mass: 127.600000
    reduced_to: 136
  - symbol: Te # 157
    coordinates: [  0.870202523306527,  0.564877726316345,  0.137315656432945 ]
    mass: 127.600000
    reduced_to: 136
  - symbol: Te # 158
    coordinates: [  0.981313634417638,  0.416729578168197,  0.137315656432945 ]
    mass: 127.600000
    reduced_to: 136
  - symbol: Te # 159
    coordinates: [  0.092424745528749,  0.268581430020049,  0.137315656432945 ]
    mass: 127.600000
    reduced_to: 136
  - symbol: Te # 160
    coordinates: [  0.981313634417638,  0.750062911501530,  0.137315656432945 ]
    mass: 127.600000
    reduced_to: 136
  - symbol: Te # 161
    coordinates: [  0.092424745528749,  0.601914763353382,  0.137315656432945 ]
    mass: 127.600000
    reduced_to: 136
  - symbol: Te # 162
    coordinates: [  0.203535856639860,  0.453766615205234,  0.137315656432945 ]
    mass: 127.600000
    reduced_to: 136
  - symbol: Te # 163
    coordinates: [  0.090782137482068,  0.887414957177071,  0.557957975523877 ]
    mass: 127.600000
    reduced_to: 82
  - symbol: Te # 164
    coordinates: [  0.201893248593179,  0.739266809028923,  0.557957975523877 ]
    mass: 127.600000
    reduced_to: 82
  - symbol: Te # 165
    coordinates: [  0.313004359704290,  0.591118660880774,  0.557957975523877 ]
    mass: 127.600000
    reduced_to: 82
  - symbol: Te # 166
    coordinates: [  0.424115470815401,  0.442970512732626,  0.557957975523877 ]
    mass: 127.600000
    reduced_to: 82
  - symbol: Te # 167
    coordinates: [  0.535226581926512,  0.294822364584478,  0.557957975523877 ]
    mass: 127.600000
    reduced_to: 82
  - symbol: Te # 168
    coordinates: [  0.646337693037623,  0.146674216436330,  0.557957975523877 ]
    mass: 127.600000
    reduced_to: 82
  - symbol: Te # 169
    coordinates: [  0.757448804148735,  0.998526068288182,  0.557957975523877 ]
    mass: 127.600000
    reduced_to: 82
  - symbol: Te # 170
    coordinates: [  0.868559915259846,  0.850377920140034,  0.557957975523877 ]
    mass: 127.600000
    reduced_to: 82
  - symbol: Te # 171
    coordinates: [  0.201893248593179,  0.072600142362256,  0.557957975523877 ]
    mass: 127.600000
    reduced_to: 82
  - symbol: Te # 172
    coordinates: [  0.313004359704290,  0.924451994214108,  0.557957975523877 ]
    mass: 127.600000
    reduced_to: 82
  - symbol: Te # 173
    coordinates: [  0.424115470815401,  0.776303846065960,  0.557957975523877 ]
    mass: 127.600000
    reduced_to: 82
  - symbol: Te # 174
    coordinates: [  0.535226581926512,  0.628155697917812,  0.557957975523877 ]
    mass: 127.600000
    reduced_to: 82
  - symbol: Te # 175
    coordinates: [  0.646337693037623,  0.480007549769663,  0.557957975523877 ]
    mass: 127.600000
    reduced_to: 82
  - symbol: Te # 176
    coordinates: [  0.757448804148735,  0.331859401621515,  0.557957975523877 ]
    mass: 127.600000
    reduced_to: 82
  - symbol: Te # 177
    coordinates: [  0.868559915259846,  0.183711253473367,  0.557957975523877 ]
    mass: 127.600000
    reduced_to: 82
  - symbol: Te # 178
    coordinates: [  0.979671026370957,  0.035563105325219,  0.557957975523877 ]
    mass: 127.600000
    reduced_to: 82
  - symbol: Te # 179
    coordinates: [  0.313004359704290,  0.257785327547441,  0.557957975523877 ]
    mass: 127.600000
    reduced_to: 82
  - symbol: Te # 180
    coordinates: [  0.424115470815401,  0.109637179399293,  0.557957975523877 ]
    mass: 127.600000
    reduced_to: 82
  - symbol: Te # 181
    coordinates: [  0.535226581926512,  0.961489031251145,  0.557957975523877 ]
    mass: 127.600000
    reduced_to: 82
  - symbol: Te # 182
    coordinates: [  0.646337693037623,  0.813340883102997,  0.557957975523877 ]
    mass: 127.600000
    reduced_to: 82
  - symbol: Te # 183
    coordinates: [  0.757448804148735,  0.665192734954849,  0.557957975523877 ]
    mass: 127.600000
    reduced_to: 82
  - symbol: Te # 184
    coordinates: [  0.868559915259846,  0.517044586806700,  0.557957975523877 ]
    mass: 127.600000
    reduced_to: 82
  - symbol: Te # 185
    coordinates: [  0.979671026370957,  0.368896438658552,  0.557957975523877 ]
    mass: 127.600000
    reduced_to: 82
  - symbol: Te # 186
    coordinates: [  0.090782137482068,  0.220748290510404,  0.557957975523877 ]
    mass: 127.600000
    reduced_to: 82
  - symbol: Te # 187
    coordinates: [  0.979671026370957,  0.702229771991886,  0.557957975523877 ]
    mass: 127.600000
    reduced_to: 82
  - symbol: Te # 188