phonopy:
  version: "2.21.0"
  frequency_unit_conversion_factor: 15.633302
  symmetry_tolerance: 1.00000e-04

space_group:
  type: "P2_1"
  number: 4
  Hall_symbol: "P 2yb"

primitive_matrix:
- [ -1.000000000000000,  0.000000000000000,  0.000000000000000 ]
- [  0.000000000000000, -1.000000000000000,  0.000000000000000 ]
- [  0.000000000000000,  0.000000000000000,  1.000000000000000 ]

supercell_matrix:
- [   0,   4,   0 ]
- [   5,   0,   0 ]
- [   0,   0,  -4 ]

primitive_cell:
  lattice:
  - [     0.000000000000000,    -4.307873908543252,     0.487542044826598 ] # a
  - [    -5.887201315396492,     0.000000000000000,     0.000000000000000 ] # b
  - [     0.000000000000000,    -0.556599899522773,    -5.861064092892349 ] # c
  points:
  - symbol: Ag # 1
    coordinates: [  0.999964744002937,  0.999719091756756,  0.999718513499344 ]
    mass: 107.868200
  - symbol: Ag # 2
    coordinates: [  0.999999785471195,  0.500268436663825,  0.500288738037276 ]
    mass: 107.868200
  - symbol: Ag # 3
    coordinates: [  0.000000214528804,  0.000268436663818,  0.499711261962724 ]
    mass: 107.868200
  - symbol: Ag # 4
    coordinates: [  0.000035255997063,  0.499719091756757,  0.000281486500656 ]
    mass: 107.868200
  - symbol: S  # 5
    coordinates: [  0.290492248446760,  0.750012481579419,  0.253547201504863 ]
    mass: 32.065000
  - symbol: S  # 6
    coordinates: [  0.709507751553240,  0.250012481579412,  0.746452798495137 ]
    mass: 32.065000
  reciprocal_lattice: # without 2pi
  - [    -0.000000000000000,    -0.229664702518762,     0.021810263174035 ] # a*
  - [    -0.169859997378509,    -0.000000000000000,    -0.000000000000000 ] # b*
  - [    -0.000000000000000,    -0.019104244027339,    -0.168803235046298 ] # c*

unit_cell:
  lattice:
  - [     0.000000000000000,     4.307873908543252,    -0.487542044826598 ] # a
  - [     5.887201315396491,     0.000000000000000,     0.000000000000000 ] # b
  - [     0.000000000000000,    -0.556599899522773,    -5.861064092892349 ] # c
  points:
  - symbol: Ag # 1
    coordinates: [  0.000035255997063,  0.000280908243244, -0.000281486500656 ]
    mass: 107.868200
    reduced_to: 1
  - symbol: Ag # 2
    coordinates: [  0.000000214528805,  0.499731563336175,  0.500288738037276 ]
    mass: 107.868200
    reduced_to: 2
  - symbol: Ag # 3
    coordinates: [ -0.000000214528805, -0.000268436663818,  0.499711261962724 ]
    mass: 107.868200
    reduced_to: 3
  - symbol: Ag # 4
    coordinates: [ -0.000035255997063,  0.500280908243243,  0.000281486500656 ]
    mass: 107.868200
    reduced_to: 4
  - symbol: S  # 5
    coordinates: [  0.709507751553240,  0.249987518420581,  0.253547201504863 ]
    mass: 32.065000
    reduced_to: 5
  - symbol: S  # 6
    coordinates: [  0.290492248446760,  0.749987518420588,  0.746452798495137 ]
    mass: 32.065000
    reduced_to: 6

supercell:
  lattice:
  - [    29.436006576982457,     0.000000000000000,     0.000000000000000 ] # a
  - [     0.000000000000000,    17.231495634173008,    -1.950168179306392 ] # b
  - [     0.000000000000000,     2.226399598091093,    23.444256371569395 ] # c
  points:
  - symbol: Ag # 1
    coordinates: [  0.000056181648649,  0.000008813999266,  0.000070371625164 ]
    mass: 107.868200
    reduced_to: 1
  - symbol: Ag # 2
    coordinates: [  0.000056181648649,  0.250008813999266,  0.000070371625164 ]
    mass: 107.868200
    reduced_to: 1
  - symbol: Ag # 3
    coordinates: [  0.000056181648649,  0.500008813999266,  0.000070371625164 ]
    mass: 107.868200
    reduced_to: 1
  - symbol: Ag # 4
    coordinates: [  0.000056181648649,  0.750008813999266,  0.000070371625164 ]
    mass: 107.868200
    reduced_to: 1
  - symbol: Ag # 5
    coordinates: [  0.200056181648649,  0.000008813999266,  0.000070371625164 ]
    mass: 107.868200
    reduced_to: 1
  - symbol: Ag # 6
    coordinates: [  0.200056181648649,  0.250008813999266,  0.000070371625164 ]
    mass: 107.868200
    reduced_to: 1
  - symbol: Ag # 7
    coordinates: [  0.200056181648649,  0.500008813999266,  0.000070371625164 ]
    mass: 107.868200
    reduced_to: 1
  - symbol: Ag # 8
    coordinates: [  0.200056181648649,  0.750008813999266,  0.000070371625164 ]
    mass: 107.868200
    reduced_to: 1
  - symbol: Ag # 9
    coordinates: [  0.400056181648649,  0.000008813999266,  0.000070371625164 ]
    mass: 107.868200
    reduced_to: 1
  - symbol: Ag # 10
    coordinates: [  0.400056181648649,  0.250008813999266,  0.000070371625164 ]
    mass: 107.868200
    reduced_to: 1
  - symbol: Ag # 11
    coordinates: [  0.400056181648649,  0.500008813999266,  0.000070371625164 ]
    mass: 107.868200
    reduced_to: 1
  - symbol: Ag # 12
    coordinates: [  0.400056181648649,  0.750008813999266,  0.000070371625164 ]
    mass: 107.868200
    reduced_to: 1
  - symbol: Ag # 13
    coordinates: [  0.600056181648649,  0.000008813999266,  0.000070371625164 ]
    mass: 107.868200
    reduced_to: 1
  - symbol: Ag # 14
    coordinates: [  0.600056181648649,  0.250008813999266,  0.000070371625164 ]
    mass: 107.868200
    reduced_to: 1
  - symbol: Ag # 15
    coordinates: [  0.600056181648649,  0.500008813999266,  0.000070371625164 ]
    mass: 107.868200
    reduced_to: 1
  - symbol: Ag # 16
    coordinates: [  0.600056181648649,  0.750008813999266,  0.000070371625164 ]
    mass: 107.868200
    reduced_to: 1
  - symbol: Ag # 17
    coordinates: [  0.800056181648649,  0.000008813999266,  0.000070371625164 ]
    mass: 107.868200
    reduced_to: 1
  - symbol: Ag # 18
    coordinates: [  0.800056181648649,  0.250008813999266,  0.000070371625164 ]
    mass: 107.868200
    reduced_to: 1
  - symbol: Ag # 19
    coordinates: [  0.800056181648649,  0.500008813999266,  0.000070371625164 ]
    mass: 107.868200
    reduced_to: 1
  - symbol: Ag # 20
    coordinates: [  0.800056181648649,  0.750008813999266,  0.000070371625164 ]
    mass: 107.868200
    reduced_to: 1
  - symbol: Ag # 21
    coordinates: [  0.000056181648649,  0.000008813999266,  0.750070371625164 ]
    mass: 107.868200
    reduced_to: 1
  - symbol: Ag # 22
    coordinates: [  0.000056181648649,  0.250008813999266,  0.750070371625164 ]
    mass: 107.868200
    reduced_to: 1
  - symbol: Ag # 23
    coordinates: [  0.000056181648649,  0.500008813999266,  0.750070371625164 ]
    mass: 107.868200
    reduced_to: 1
  - symbol: Ag # 24
    coordinates: [  0.000056181648649,  0.750008813999266,  0.750070371625164 ]
    mass: 107.868200
    reduced_to: 1
  - symbol: Ag # 25
    coordinates: [  0.200056181648649,  0.000008813999266,  0.750070371625164 ]
    mass: 107.868200
    reduced_to: 1
  - symbol: Ag # 26
    coordinates: [  0.200056181648649,  0.250008813999266,  0.750070371625164 ]
    mass: 107.868200
    reduced_to: 1
  - symbol: Ag # 27
    coordinates: [  0.200056181648649,  0.500008813999266,  0.750070371625164 ]
    mass: 107.868200
    reduced_to: 1
  - symbol: Ag # 28
    coordinates: [  0.200056181648649,  0.750008813999266,  0.750070371625164 ]
    mass: 107.868200
    reduced_to: 1
  - symbol: Ag # 29
    coordinates: [  0.400056181648649,  0.000008813999266,  0.750070371625164 ]
    mass: 107.868200
    reduced_to: 1
  - symbol: Ag # 30
    coordinates: [  0.400056181648649,  0.250008813999266,  0.750070371625164 ]
    mass: 107.868200
    reduced_to: 1
  - symbol: Ag # 31
    coordinates: [  0.400056181648649,  0.500008813999266,  0.750070371625164 ]
    mass: 107.868200
    reduced_to: 1
  - symbol: Ag # 32
    coordinates: [  0.400056181648649,  0.750008813999266,  0.750070371625164 ]
    mass: 107.868200
    reduced_to: 1
  - symbol: Ag # 33
    coordinates: [  0.600056181648649,  0.000008813999266,  0.750070371625164 ]
    mass: 107.868200
    reduced_to: 1
  - symbol: Ag # 34
    coordinates: [  0.600056181648649,  0.250008813999266,  0.750070371625164 ]
    mass: 107.868200
    reduced_to: 1
  - symbol: Ag # 35
    coordinates: [  0.600056181648649,  0.500008813999266,  0.750070371625164 ]
    mass: 107.868200
    reduced_to: 1
  - symbol: Ag # 36
    coordinates: [  0.600056181648649,  0.750008813999266,  0.750070371625164 ]
    mass: 107.868200
    reduced_to: 1
  - symbol: Ag # 37
    coordinates: [  0.800056181648649,  0.000008813999266,  0.750070371625164 ]
    mass: 107.868200
    reduced_to: 1
  - symbol: Ag # 38
    coordinates: [  0.800056181648649,  0.250008813999266,  0.750070371625164 ]
    mass: 107.868200
    reduced_to: 1
  - symbol: Ag # 39
    coordinates: [  0.800056181648649,  0.500008813999266,  0.750070371625164 ]
    mass: 107.868200
    reduced_to: 1
  - symbol: Ag # 40
    coordinates: [  0.800056181648649,  0.750008813999266,  0.750070371625164 ]
    mass: 107.868200
    reduced_to: 1
  - symbol: Ag # 41
    coordinates: [  0.000056181648649,  0.000008813999266,  0.500070371625164 ]
    mass: 107.868200
    reduced_to: 1
  - symbol: Ag # 42
    coordinates: [  0.000056181648649,  0.250008813999266,  0.500070371625164 ]
    mass: 107.868200
    reduced_to: 1
  - symbol: Ag # 43
    coordinates: [  0.000056181648649,  0.500008813999266,  0.500070371625164 ]
    mass: 107.868200
    reduced_to: 1
  - symbol: Ag # 44
    coordinates: [  0.000056181648649,  0.750008813999266,  0.500070371625164 ]
    mass: 107.868200
    reduced_to: 1
  - symbol: Ag # 45
    coordinates: [  0.200056181648649,  0.000008813999266,  0.500070371625164 ]
    mass: 107.868200
    reduced_to: 1
  - symbol: Ag # 46
    coordinates: [  0.200056181648649,  0.250008813999266,  0.500070371625164 ]
    mass: 107.868200
    reduced_to: 1
  - symbol: Ag # 47
    coordinates: [  0.200056181648649,  0.500008813999266,  0.500070371625164 ]
    mass: 107.868200
    reduced_to: 1
  - symbol: Ag # 48
    coordinates: [  0.200056181648649,  0.750008813999266,  0.500070371625164 ]
    mass: 107.868200
    reduced_to: 1
  - symbol: Ag # 49
    coordinates: [  0.400056181648649,  0.000008813999266,  0.500070371625164 ]
    mass: 107.868200
    reduced_to: 1
  - symbol: Ag # 50
    coordinates: [  0.400056181648649,  0.250008813999266,  0.500070371625164 ]
    mass: 107.868200
    reduced_to: 1
  - symbol: Ag # 51
    coordinates: [  0.400056181648649,  0.500008813999266,  0.500070371625164 ]
    mass: 107.868200
    reduced_to: 1
  - symbol: Ag # 52
    coordinates: [  0.400056181648649,  0.750008813999266,  0.500070371625164 ]
    mass: 107.868200
    reduced_to: 1
  - symbol: Ag # 53
    coordinates: [  0.600056181648649,  0.000008813999266,  0.500070371625164 ]
    mass: 107.868200
    reduced_to: 1
  - symbol: Ag # 54
    coordinates: [  0.600056181648649,  0.250008813999266,  0.500070371625164 ]
    mass: 107.868200
    reduced_to: 1
  - symbol: Ag # 55
    coordinates: [  0.600056181648649,  0.500008813999266,  0.500070371625164 ]
    mass: 107.868200
    reduced_to: 1
  - symbol: Ag # 56
    coordinates: [  0.600056181648649,  0.750008813999266,  0.500070371625164 ]
    mass: 107.868200
    reduced_to: 1
  - symbol: Ag # 57
    coordinates: [  0.800056181648649,  0.000008813999266,  0.500070371625164 ]
    mass: 107.868200
    reduced_to: 1
  - symbol: Ag # 58
    coordinates: [  0.800056181648649,  0.250008813999266,  0.500070371625164 ]
    mass: 107.868200
    reduced_to: 1
  - symbol: Ag # 59
    coordinates: [  0.800056181648649,  0.500008813999266,  0.500070371625164 ]
    mass: 107.868200
    reduced_to: 1
  - symbol: Ag # 60
    coordinates: [  0.800056181648649,  0.750008813999266,  0.500070371625164 ]
    mass: 107.868200
    reduced_to: 1
  - symbol: Ag # 61
    coordinates: [  0.000056181648649,  0.000008813999266,  0.250070371625164 ]
    mass: 107.868200
    reduced_to: 1
  - symbol: Ag # 62
    coordinates: [  0.000056181648649,  0.250008813999266,  0.250070371625164 ]
    mass: 107.868200
    reduced_to: 1
  - symbol: Ag # 63
    coordinates: [  0.000056181648649,  0.500008813999266,  0.250070371625164 ]
    mass: 107.868200
    reduced_to: 1
  - symbol: Ag # 64
    coordinates: [  0.000056181648649,  0.750008813999266,  0.250070371625164 ]
    mass: 107.868200
    reduced_to: 1
  - symbol: Ag # 65
    coordinates: [  0.200056181648649,  0.000008813999266,  0.250070371625164 ]
    mass: 107.868200
    reduced_to: 1
  - symbol: Ag # 66
    coordinates: [  0.200056181648649,  0.250008813999266,  0.250070371625164 ]
    mass: 107.868200
    reduced_to: 1
  - symbol: Ag # 67
    coordinates: [  0.200056181648649,  0.500008813999266,  0.250070371625164 ]
    mass: 107.868200
    reduced_to: 1
  - symbol: Ag # 68
    coordinates: [  0.200056181648649,  0.750008813999266,  0.250070371625164 ]
    mass: 107.868200
    reduced_to: 1
  - symbol: Ag # 69
    coordinates: [  0.400056181648649,  0.000008813999266,  0.250070371625164 ]
    mass: 107.868200
    reduced_to: 1
  - symbol: Ag # 70
    coordinates: [  0.400056181648649,  0.250008813999266,  0.250070371625164 ]
    mass: 107.868200
    reduced_to: 1
  - symbol: Ag # 71
    coordinates: [  0.400056181648649,  0.500008813999266,  0.250070371625164 ]
    mass: 107.868200
    reduced_to: 1
  - symbol: Ag # 72
    coordinates: [  0.400056181648649,  0.750008813999266,  0.250070371625164 ]
    mass: 107.868200
    reduced_to: 1
  - symbol: Ag # 73
    coordinates: [  0.600056181648649,  0.000008813999266,  0.250070371625164 ]
    mass: 107.868200
    reduced_to: 1
  - symbol: Ag # 74
    coordinates: [  0.600056181648649,  0.250008813999266,  0.250070371625164 ]
    mass: 107.868200
    reduced_to: 1
  - symbol: Ag # 75
    coordinates: [  0.600056181648649,  0.500008813999266,  0.250070371625164 ]
    mass: 107.868200
    reduced_to: 1
  - symbol: Ag # 76
    coordinates: [  0.600056181648649,  0.750008813999266,  0.250070371625164 ]
    mass: 107.868200
    reduced_to: 1
  - symbol: Ag # 77
    coordinates: [  0.800056181648649,  0.000008813999266,  0.250070371625164 ]
    mass: 107.868200
    reduced_to: 1
  - symbol: Ag # 78
    coordinates: [  0.800056181648649,  0.250008813999266,  0.250070371625164 ]
    mass: 107.868200
    reduced_to: 1
  - symbol: Ag # 79
    coordinates: [  0.800056181648649,  0.500008813999266,  0.250070371625164 ]
    mass: 107.868200
    reduced_to: 1
  - symbol: Ag # 80
    coordinates: [  0.800056181648649,  0.750008813999266,  0.250070371625164 ]
    mass: 107.868200
    reduced_to: 1
  - symbol: Ag # 81
    coordinates: [  0.099946312667235,  0.000000053632201,  0.874927815490681 ]
    mass: 107.868200
    reduced_to: 81
  - symbol: Ag # 82
    coordinates: [  0.099946312667235,  0.250000053632201,  0.874927815490681 ]
    mass: 107.868200
    reduced_to: 81
  - symbol: Ag # 83
    coordinates: [  0.099946312667235,  0.500000053632201,  0.874927815490681 ]
    mass: 107.868200
    reduced_to: 81
  - symbol: Ag # 84
    coordinates: [  0.099946312667235,  0.750000053632201,  0.874927815490681 ]
    mass: 107.868200
    reduced_to: 81
  - symbol: Ag # 85
    coordinates: [  0.299946312667235,  0.000000053632201,  0.874927815490681 ]
    mass: 107.868200
    reduced_to: 81
  - symbol: Ag # 86
    coordinates: [  0.299946312667235,  0.250000053632201,  0.874927815490681 ]
    mass: 107.868200
    reduced_to: 81
  - symbol: Ag # 87
    coordinates: [  0.299946312667235,  0.500000053632201,  0.874927815490681 ]
    mass: 107.868200
    reduced_to: 81
  - symbol: Ag # 88
    coordinates: [  0.299946312667235,  0.750000053632201,  0.874927815490681 ]
    mass: 107.868200
    reduced_to: 81
  - symbol: Ag # 89
    coordinates: [  0.499946312667235,  0.000000053632201,  0.874927815490681 ]
    mass: 107.868200
    reduced_to: 81
  - symbol: Ag # 90
    coordinates: [  0.499946312667235,  0.250000053632201,  0.874927815490681 ]
    mass: 107.868200
    reduced_to: 81
  - symbol: Ag # 91
    coordinates: [  0.499946312667235,  0.500000053632201,  0.874927815490681 ]
    mass: 107.868200
    reduced_to: 81
  - symbol: Ag # 92
    coordinates: [  0.499946312667235,  0.750000053632201,  0.874927815490681 ]
    mass: 107.868200
    reduced_to: 81
  - symbol: Ag # 93
    coordinates: [  0.699946312667235,  0.000000053632201,  0.874927815490681 ]
    mass: 107.868200
    reduced_to: 81
  - symbol: Ag # 94
    coordinates: [  0.699946312667235,  0.250000053632201,  0.874927815490681 ]
    mass: 107.868200
    reduced_to: 81
  - symbol: Ag # 95
    coordinates: [  0.699946312667235,  0.500000053632201,  0.874927815490681 ]
    mass: 107.868200
    reduced_to: 81
  - symbol: Ag # 96
    coordinates: [  0.699946312667235,  0.750000053632201,  0.874927815490681 ]
    mass: 107.868200
    reduced_to: 81
  - symbol: Ag # 97
    coordinates: [  0.899946312667235,  0.000000053632201,  0.874927815490681 ]
    mass: 107.868200
    reduced_to: 81
  - symbol: Ag # 98
    coordinates: [  0.899946312667235,  0.250000053632201,  0.874927815490681 ]
    mass: 107.868200
    reduced_to: 81
  - symbol: Ag # 99
    coordinates: [  0.899946312667235,  0.500000053632201,  0.874927815490681 ]
    mass: 107.868200
    reduced_to: 81
  - symbol: Ag # 100
    coordinates: [  0.899946312667235,  0.750000053632201,  0.874927815490681 ]
    mass: 107.868200
    reduced_to: 81
  - symbol: Ag # 101
    coordinates: [  0.099946312667235,  0.000000053632201,  0.624927815490681 ]
    mass: 107.868200
    reduced_to: 81
  - symbol: Ag # 102
    coordinates: [  0.099946312667235,  0.250000053632201,  0.624927815490681 ]
    mass: 107.868200
    reduced_to: 81
  - symbol: Ag # 103
    coordinates: [  0.099946312667235,  0.500000053632201,  0.624927815490681 ]
    mass: 107.868200
    reduced_to: 81
  - symbol: Ag # 104
    coordinates: [  0.099946312667235,  0.750000053632201,  0.624927815490681 ]
    mass: 107.868200
    reduced_to: 81
  - symbol: Ag # 105
    coordinates: [  0.299946312667235,  0.000000053632201,  0.624927815490681 ]
    mass: 107.868200
    reduced_to: 81
  - symbol: Ag # 106
    coordinates: [  0.299946312667235,  0.250000053632201,  0.624927815490681 ]
    mass: 107.868200
    reduced_to: 81
  - symbol: Ag # 107
    coordinates: [  0.299946312667235,  0.500000053632201,  0.624927815490681 ]
    mass: 107.868200
    reduced_to: 81
  - symbol: Ag # 108
    coordinates: [  0.299946312667235,  0.750000053632201,  0.624927815490681 ]
    mass: 107.868200
    reduced_to: 81
  - symbol: Ag # 109
    coordinates: [  0.499946312667235,  0.000000053632201,  0.624927815490681 ]
    mass: 107.868200
    reduced_to: 81
  - symbol: Ag # 110
    coordinates: [  0.499946312667235,  0.250000053632201,  0.624927815490681 ]
    mass: 107.868200
    reduced_to: 81
  - symbol: Ag # 111
    coordinates: [  0.499946312667235,  0.500000053632201,  0.624927815490681 ]
    mass: 107.868200
    reduced_to: 81
  - symbol: Ag # 112
    coordinates: [  0.499946312667235,  0.750000053632201,  0.624927815490681 ]
    mass: 107.868200
    reduced_to: 81
  - symbol: Ag # 113
    coordinates: [  0.699946312667235,  0.000000053632201,  0.624927815490681 ]
    mass: 107.868200
    reduced_to: 81
  - symbol: Ag # 114
    coordinates: [  0.699946312667235,  0.250000053632201,  0.624927815490681 ]
    mass: 107.868200
    reduced_to: 81
  - symbol: Ag # 115
    coordinates: [  0.699946312667235,  0.500000053632201,  0.624927815490681 ]
    mass: 107.868200
    reduced_to: 81
  - symbol: Ag # 116
    coordinates: [  0.699946312667235,  0.750000053632201,  0.624927815490681 ]
    mass: 107.868200
    reduced_to: 81
  - symbol: Ag # 117
    coordinates: [  0.899946312667235,  0.000000053632201,  0.624927815490681 ]
    mass: 107.868200
    reduced_to: 81
  - symbol: Ag # 118
    coordinates: [  0.899946312667235,  0.250000053632201,  0.624927815490681 ]
    mass: 107.868200
    reduced_to: 81
  - symbol: Ag # 119
    coordinates: [  0.899946312667235,  0.500000053632201,  0.624927815490681 ]
    mass: 107.868200
    reduced_to: 81
  - symbol: Ag # 120
    coordinates: [  0.899946312667235,  0.750000053632201,  0.624927815490681 ]
    mass: 107.868200
    reduced_to: 81
  - symbol: Ag # 121
    coordinates: [  0.099946312667235,  0.000000053632201,  0.374927815490681 ]
    mass: 107.868200
    reduced_to: 81
  - symbol: Ag # 122
    coordinates: [  0.099946312667235,  0.250000053632201,  0.374927815490681 ]
    mass: 107.868200
    reduced_to: 81
  - symbol: Ag # 123
    coordinates: [  0.099946312667235,  0.500000053632201,  0.374927815490681 ]
    mass: 107.868200
    reduced_to: 81
  - symbol: Ag # 124
    coordinates: [  0.099946312667235,  0.750000053632201,  0.374927815490681 ]
    mass: 107.868200
    reduced_to: 81
  - symbol: Ag # 125
    coordinates: [  0.299946312667235,  0.000000053632201,  0.374927815490681 ]
    mass: 107.868200
    reduced_to: 81
  - symbol: Ag # 126
    coordinates: [  0.299946312667235,  0.250000053632201,  0.374927815490681 ]
    mass: 107.868200
    reduced_to: 81
  - symbol: Ag # 127
    coordinates: [  0.299946312667235,  0.500000053632201,  0.374927815490681 ]
    mass: 107.868200
    reduced_to: 81
  - symbol: Ag # 128
    coordinates: [  0.299946312667235,  0.750000053632201,  0.374927815490681 ]
    mass: 107.868200
    reduced_to: 81
  - symbol: Ag # 129
    coordinates: [  0.499946312667235,  0.000000053632201,  0.374927815490681 ]
    mass: 107.868200
    reduced_to: 81
  - symbol: Ag # 130
    coordinates: [  0.499946312667235,  0.250000053632201,  0.374927815490681 ]
    mass: 107.868200
    reduced_to: 81
  - symbol: Ag # 131
    coordinates: [  0.499946312667235,  0.500000053632201,  0.374927815490681 ]
    mass: 107.868200
    reduced_to: 81
  - symbol: Ag # 132
    coordinates: [  0.499946312667235,  0.750000053632201,  0.374927815490681 ]
    mass: 107.868200
    reduced_to: 81
  - symbol: Ag # 133
    coordinates: [  0.699946312667235,  0.000000053632201,  0.374927815490681 ]
    mass: 107.868200
    reduced_to: 81
  - symbol: Ag # 134
    coordinates: [  0.699946312667235,  0.250000053632201,  0.374927815490681 ]
    mass: 107.868200
    reduced_to: 81
  - symbol: Ag # 135
    coordinates: [  0.699946312667235,  0.500000053632201,  0.374927815490681 ]
    mass: 107.868200
    reduced_to: 81
  - symbol: Ag # 136
    coordinates: [  0.699946312667235,  0.750000053632201,  0.374927815490681 ]
    mass: 107.868200
    reduced_to: 81
  - symbol: Ag # 137
    coordinates: [  0.899946312667235,  0.000000053632201,  0.374927815490681 ]
    mass: 107.868200
    reduced_to: 81
  - symbol: Ag # 138
    coordinates: [  0.899946312667235,  0.250000053632201,  0.374927815490681 ]
    mass: 107.868200
    reduced_to: 81
  - symbol: Ag # 139
    coordinates: [  0.899946312667235,  0.500000053632201,  0.374927815490681 ]
    mass: 107.868200
    reduced_to: 81
  - symbol: Ag # 140
    coordinates: [  0.899946312667235,  0.750000053632201,  0.374927815490681 ]
    mass: 107.868200
    reduced_to: 81
  - symbol: Ag # 141
    coordinates: [  0.099946312667235,  0.000000053632201,  0.124927815490681 ]
    mass: 107.868200
    reduced_to: 81
  - symbol: Ag # 142
    coordinates: [  0.099946312667235,  0.250000053632201,  0.124927815490681 ]
    mass: 107.868200
    reduced_to: 81
  - symbol: Ag # 143
    coordinates: [  0.099946312667235,  0.500000053632201,  0.124927815490681 ]
    mass: 107.868200
    reduced_to: 81
  - symbol: Ag # 144
    coordinates: [  0.099946312667235,  0.750000053632201,  0.124927815490681 ]
    mass: 107.868200
    reduced_to: 81
  - symbol: Ag # 145
    coordinates: [  0.299946312667235,  0.000000053632201,  0.124927815490681 ]
    mass: 107.868200
    reduced_to: 81
  - symbol: Ag # 146
    coordinates: [  0.299946312667235,  0.250000053632201,  0.124927815490681 ]
    mass: 107.868200
    reduced_to: 81
  - symbol: Ag # 147
    coordinates: [  0.299946312667235,  0.500000053632201,  0.124927815490681 ]
    mass: 107.868200
    reduced_to: 81
  - symbol: Ag # 148
    coordinates: [  0.299946312667235,  0.750000053632201,  0.124927815490681 ]
    mass: 107.868200
    reduced_to: 81
  - symbol: Ag # 149
    coordinates: [  0.499946312667235,  0.000000053632201,  0.124927815490681 ]
    mass: 107.868200
    reduced_to: 81
  - symbol: Ag # 150
    coordinates: [  0.499946312667235,  0.250000053632201,  0.124927815490681 ]
    mass: 107.868200
    reduced_to: 81
  - symbol: Ag # 151
    coordinates: [  0.499946312667235,  0.500000053632201,  0.124927815490681 ]
    mass: 107.868200
    reduced_to: 81
  - symbol: Ag # 152
    coordinates: [  0.499946312667235,  0.750000053632201,  0.124927815490681 ]
    mass: 107.868200
    reduced_to: 81
  - symbol: Ag # 153
    coordinates: [  0.699946312667235,  0.000000053632201,  0.124927815490681 ]
    mass: 107.868200
    reduced_to: 81
  - symbol: Ag # 154
    coordinates: [  0.699946312667235,  0.250000053632201,  0.124927815490681 ]
    mass: 107.868200
    reduced_to: 81
  - symbol: Ag # 155
    coordinates: [  0.699946312667235,  0.500000053632201,  0.124927815490681 ]
    mass: 107.868200
    reduced_to: 81
  - symbol: Ag # 156
    coordinates: [  0.699946312667235,  0.750000053632201,  0.124927815490681 ]
    mass: 107.868200
    reduced_to: 81
  - symbol: Ag # 157
    coordinates: [  0.899946312667235,  0.000000053632201,  0.124927815490681 ]
    mass: 107.868200
    reduced_to: 81
  - symbol: Ag # 158
    coordinates: [  0.899946312667235,  0.250000053632201,  0.124927815490681 ]
    mass: 107.868200
    reduced_to: 81
  - symbol: Ag # 159
    coordinates: [  0.899946312667235,  0.500000053632201,  0.124927815490681 ]
    mass: 107.868200
    reduced_to: 81
  - symbol: Ag # 160
    coordinates: [  0.899946312667235,  0.750000053632201,  0.124927815490681 ]
    mass: 107.868200
    reduced_to: 81
  - symbol: Ag # 161
    coordinates: [  0.999946312667236,  0.999999946367799,  0.875072184509319 ]
    mass: 107.868200
    reduced_to: 161
  - symbol: Ag # 162
    coordinates: [  0.999946312667236,  0.249999946367799,  0.875072184509319 ]
    mass: 107.868200
    reduced_to: 161
  - symbol: Ag # 163
    coordinates: [  0.999946312667236,  0.499999946367799,  0.875072184509319 ]
    mass: 107.868200
    reduced_to: 161
  - symbol: Ag # 164
    coordinates: [  0.999946312667236,  0.749999946367799,  0.875072184509319 ]
    mass: 107.868200
    reduced_to: 161
  - symbol: Ag # 165
    coordinates: [  0.199946312667236,  0.999999946367799,  0.875072184509319 ]
    mass: 107.868200
    reduced_to: 161
  - symbol: Ag # 166
    coordinates: [  0.199946312667236,  0.249999946367799,  0.875072184509319 ]
    mass: 107.868200
    reduced_to: 161
  - symbol: Ag # 167
    coordinates: [  0.199946312667236,  0.499999946367799,  0.875072184509319 ]
    mass: 107.868200
    reduced_to: 161
  - symbol: Ag # 168
    coordinates: [  0.199946312667236,  0.749999946367799,  0.875072184509319 ]
    mass: 107.868200
    reduced_to: 161
  - symbol: Ag # 169
    coordinates: [  0.399946312667236,  0.999999946367799,  0.875072184509319 ]
    mass: 107.868200
    reduced_to: 161
  - symbol: Ag # 170
    coordinates: [  0.399946312667236,  0.249999946367799,  0.875072184509319 ]
    mass: 107.868200
    reduced_to: 161
  - symbol: Ag # 171
    coordinates: [  0.399946312667236,  0.499999946367799,  0.875072184509319 ]
    mass: 107.868200
    reduced_to: 161
  - symbol: Ag # 172
    coordinates: [  0.399946312667236,  0.749999946367799,  0.875072184509319 ]
    mass: 107.868200
    reduced_to: 161
  - symbol: Ag # 173
    coordinates: [  0.599946312667236,  0.999999946367799,  0.875072184509319 ]
    mass: 107.868200
    reduced_to: 161
  - symbol: Ag # 174
    coordinates: [  0.599946312667236,  0.249999946367799,  0.875072184509319 ]
    mass: 107.868200
    reduced_to: 161
  - symbol: Ag # 175
    coordinates: [  0.599946312667236,  0.499999946367799,  0.875072184509319 ]
    mass: 107.868200
    reduced_to: 161
  - symbol: Ag # 176
    coordinates: [  0.599946312667236,  0.749999946367799,  0.875072184509319 ]
    mass: 107.868200
    reduced_to: 161
  - symbol: Ag # 177
    coordinates: [  0.799946312667236,  0.999999946367799,  0.875072184509319 ]
    mass: 107.868200
    reduced_to: 161
  - symbol: Ag # 178
    coordinates: [  0.799946312667236,  0.249999946367799,  0.875072184509319 ]
    mass: 107.868200
    reduced_to: 161
  - symbol: Ag # 179
    coordinates: [  0.799946312667236,  0.499999946367799,  0.875072184509319 ]
    mass: 107.868200
    reduced_to: 161
  - symbol: Ag # 180
    coordinates: [  0.799946312667236,  0.749999946367799,  0.875072184509319 ]
    mass: 107.868200
    reduced_to: 161
  - symbol: Ag # 181
    coordinates: [  0.999946312667236,  0.999999946367799,  0.625072184509319 ]
    mass: 107.868200
    reduced_to: 161
  - symbol: Ag # 182
    coordinates: [  0.999946312667236,  0.249999946367799,  0.625072184509319 ]
    mass: 107.868200
    reduced_to: 161
  - symbol: Ag # 183
    coordinates: [  0.999946312667236,  0.499999946367799,  0.625072184509319 ]
    mass: 107.868200
    reduced_to: 161
  - symbol: Ag # 184
    coordinates: [  0.999946312667236,  0.749999946367799,  0.625072184509319 ]
    mass: 107.868200
    reduced_to: 161
  - symbol: Ag # 185
    coordinates: [  0.199946312667236,  0.999999946367799,  0.625072184509319 ]
    mass: 107.868200
    reduced_to: 161
  - symbol: Ag # 186
    coordinates: [  0.199946312667236,  0.249999946367799,  0.625072184509319 ]
    mass: 107.868200
    reduced_to: 161
  - symbol: Ag # 187
    coordinates: [  0.199946312667236,  0.499999946367799,  0.625072184509319 ]
    mass: 107.868200
    reduced_to: 161
  - symbol: Ag # 188
    coordinates: [  0.199946312667236,  0.749999946367799,  0.625072184509319 ]
    mass: 107.868200
    reduced_to: 161
  - symbol: Ag # 189
    coordinates: [  0.399946312667236,  0.999999946367799,  0.625072184509319 ]
    mass: 107.868200
    reduced_to: 161
  - symbol: Ag # 190
    coordinates: [  0.399946312667236,  0.249999946367799,  0.625072184509319 ]
    mass: 107.868200
    reduced_to: 161
  - symbol: Ag # 191
    coordinates: [  0.399946312667236,  0.499999946367799,  0.625072184509319 ]
    mass: 107.868200
    reduced_to: 161
  - symbol: Ag # 192
    coordinates: [  0.399946312667236,  0.749999946367799,  0.625072184509319 ]