phonopy:
  version: "2.21.0"
  frequency_unit_conversion_factor: 15.633302
  symmetry_tolerance: 1.00000e-04

space_group:
  type: "Pnma"
  number: 62
  Hall_symbol: "-P 2ac 2n"

primitive_matrix:
- [  0.000000000000000, -1.000000000000000,  0.000000000000000 ]
- [  1.000000000000000,  0.000000000000000,  0.000000000000000 ]
- [  0.000000000000000,  0.000000000000000,  1.000000000000000 ]

supercell_matrix:
- [   7,   0,   0 ]
- [   0,   3,   0 ]
- [   0,   0,   2 ]

primitive_cell:
  lattice:
  - [    -0.000000000000001,     9.530848380097213,     0.000000000000001 ] # a
  - [    -3.760555290475967,     0.000000000000000,    -0.000000000000000 ] # b
  - [     0.000000000000000,     0.000000000000000,    18.568911686029043 ] # c
  points:
  - symbol: As # 1
    coordinates: [  0.338717138092636,  0.750000000000000,  0.493256335587540 ]
    mass: 74.921600
  - symbol: As # 2
    coordinates: [  0.838717138092636,  0.750000000000000,  0.006743664412460 ]
    mass: 74.921600
  - symbol: As # 3
    coordinates: [  0.661282861907364,  0.250000000000000,  0.506743664412460 ]
    mass: 74.921600
  - symbol: As # 4
    coordinates: [  0.161282861907364,  0.250000000000000,  0.993256335587540 ]
    mass: 74.921600
  - symbol: As # 5
    coordinates: [  0.999998631514148,  0.250000000000000,  0.382563636470604 ]
    mass: 74.921600
  - symbol: As # 6
    coordinates: [  0.499998631514148,  0.250000000000000,  0.117436363529396 ]
    mass: 74.921600
  - symbol: As # 7
    coordinates: [  0.000001368485852,  0.750000000000000,  0.617436363529395 ]
    mass: 74.921600
  - symbol: As # 8
    coordinates: [  0.500001368485852,  0.750000000000000,  0.882563636470605 ]
    mass: 74.921600
  - symbol: Pb # 9
    coordinates: [  0.660546235373664,  0.750000000000000,  0.314506103534334 ]
    mass: 207.200000
  - symbol: Pb # 10
    coordinates: [  0.160546235373664,  0.750000000000000,  0.185493896465666 ]
    mass: 207.200000
  - symbol: Pb # 11
    coordinates: [  0.339453764626336,  0.250000000000000,  0.685493896465665 ]
    mass: 207.200000
  - symbol: Pb # 12
    coordinates: [  0.839453764626336,  0.250000000000000,  0.814506103534335 ]
    mass: 207.200000
  - symbol: S  # 13
    coordinates: [  0.804352094044608,  0.750000000000000,  0.454843387381204 ]
    mass: 32.065000
  - symbol: S  # 14
    coordinates: [  0.304352094044608,  0.750000000000000,  0.045156612618796 ]
    mass: 32.065000
  - symbol: S  # 15
    coordinates: [  0.195647905955391,  0.250000000000000,  0.545156612618796 ]
    mass: 32.065000
  - symbol: S  # 16
    coordinates: [  0.695647905955391,  0.250000000000000,  0.954843387381204 ]
    mass: 32.065000
  - symbol: S  # 17
    coordinates: [  0.492282057503615,  0.250000000000000,  0.418464599246009 ]
    mass: 32.065000
  - symbol: S  # 18
    coordinates: [  0.992282057503615,  0.250000000000000,  0.081535400753991 ]
    mass: 32.065000
  - symbol: S  # 19
    coordinates: [  0.507717942496385,  0.750000000000000,  0.581535400753991 ]
    mass: 32.065000
  - symbol: S  # 20
    coordinates: [  0.007717942496385,  0.750000000000000,  0.918464599246009 ]
    mass: 32.065000
  - symbol: S  # 21
    coordinates: [  0.150967410781044,  0.750000000000000,  0.353293899575672 ]
    mass: 32.065000
  - symbol: S  # 22
    coordinates: [  0.650967410781043,  0.750000000000000,  0.146706100424328 ]
    mass: 32.065000
  - symbol: S  # 23
    coordinates: [  0.849032589218956,  0.250000000000000,  0.646706100424328 ]
    mass: 32.065000
  - symbol: S  # 24
    coordinates: [  0.349032589218956,  0.250000000000000,  0.853293899575672 ]
    mass: 32.065000
  - symbol: S  # 25
    coordinates: [  0.625304831061906,  0.750000000000000,  0.778247959974339 ]
    mass: 32.065000
  - symbol: S  # 26
    coordinates: [  0.125304831061906,  0.750000000000000,  0.721752040025661 ]
    mass: 32.065000
  - symbol: S  # 27
    coordinates: [  0.374695168938094,  0.250000000000000,  0.221752040025661 ]
    mass: 32.065000
  - symbol: S  # 28
    coordinates: [  0.874695168938094,  0.250000000000000,  0.278247959974339 ]
    mass: 32.065000
  reciprocal_lattice: # without 2pi
  - [    -0.000000000000000,     0.104922453922176,     0.000000000000000 ] # a*
  - [    -0.265918175045216,    -0.000000000000000,     0.000000000000000 ] # b*
  - [    -0.000000000000000,    -0.000000000000000,     0.053853452313653 ] # c*

unit_cell:
  lattice:
  - [     3.760555290475967,     0.000000000000000,     0.000000000000000 ] # a
  - [    -0.000000000000001,     9.530848380097211,     0.000000000000001 ] # b
  - [    -0.000000000000000,    -0.000000000000000,    18.568911686029043 ] # c
  points:
  - symbol: As # 1
    coordinates: [  0.250000000000000,  0.338717138092636,  0.493256335587540 ]
    mass: 74.921600
    reduced_to: 1
  - symbol: As # 2
    coordinates: [  0.250000000000000,  0.838717138092636,  0.006743664412460 ]
    mass: 74.921600
    reduced_to: 2
  - symbol: As # 3
    coordinates: [  0.750000000000000,  0.661282861907364,  0.506743664412460 ]
    mass: 74.921600
    reduced_to: 3
  - symbol: As # 4
    coordinates: [  0.750000000000000,  0.161282861907364,  0.993256335587540 ]
    mass: 74.921600
    reduced_to: 4
  - symbol: As # 5
    coordinates: [  0.750000000000000,  0.999998631514148,  0.382563636470604 ]
    mass: 74.921600
    reduced_to: 5
  - symbol: As # 6
    coordinates: [  0.750000000000000,  0.499998631514148,  0.117436363529396 ]
    mass: 74.921600
    reduced_to: 6
  - symbol: As # 7
    coordinates: [  0.250000000000000,  0.000001368485852,  0.617436363529395 ]
    mass: 74.921600
    reduced_to: 7
  - symbol: As # 8
    coordinates: [  0.250000000000000,  0.500001368485852,  0.882563636470605 ]
    mass: 74.921600
    reduced_to: 8
  - symbol: Pb # 9
    coordinates: [  0.250000000000000,  0.660546235373664,  0.314506103534334 ]
    mass: 207.200000
    reduced_to: 9
  - symbol: Pb # 10
    coordinates: [  0.250000000000000,  0.160546235373664,  0.185493896465666 ]
    mass: 207.200000
    reduced_to: 10
  - symbol: Pb # 11
    coordinates: [  0.750000000000000,  0.339453764626336,  0.685493896465665 ]
    mass: 207.200000
    reduced_to: 11
  - symbol: Pb # 12
    coordinates: [  0.750000000000000,  0.839453764626336,  0.814506103534335 ]
    mass: 207.200000
    reduced_to: 12
  - symbol: S  # 13
    coordinates: [  0.250000000000000,  0.804352094044609,  0.454843387381204 ]
    mass: 32.065000
    reduced_to: 13
  - symbol: S  # 14
    coordinates: [  0.250000000000000,  0.304352094044609,  0.045156612618796 ]
    mass: 32.065000
    reduced_to: 14
  - symbol: S  # 15
    coordinates: [  0.750000000000000,  0.195647905955391,  0.545156612618796 ]
    mass: 32.065000
    reduced_to: 15
  - symbol: S  # 16
    coordinates: [  0.750000000000000,  0.695647905955391,  0.954843387381204 ]
    mass: 32.065000
    reduced_to: 16
  - symbol: S  # 17
    coordinates: [  0.750000000000000,  0.492282057503615,  0.418464599246009 ]
    mass: 32.065000
    reduced_to: 17
  - symbol: S  # 18
    coordinates: [  0.750000000000000,  0.992282057503615,  0.081535400753991 ]
    mass: 32.065000
    reduced_to: 18
  - symbol: S  # 19
    coordinates: [  0.250000000000000,  0.507717942496385,  0.581535400753991 ]
    mass: 32.065000
    reduced_to: 19
  - symbol: S  # 20
    coordinates: [  0.250000000000000,  0.007717942496385,  0.918464599246009 ]
    mass: 32.065000
    reduced_to: 20
  - symbol: S  # 21
    coordinates: [  0.250000000000000,  0.150967410781044,  0.353293899575672 ]
    mass: 32.065000
    reduced_to: 21
  - symbol: S  # 22
    coordinates: [  0.250000000000000,  0.650967410781044,  0.146706100424328 ]
    mass: 32.065000
    reduced_to: 22
  - symbol: S  # 23
    coordinates: [  0.750000000000000,  0.849032589218956,  0.646706100424328 ]
    mass: 32.065000
    reduced_to: 23
  - symbol: S  # 24
    coordinates: [  0.750000000000000,  0.349032589218956,  0.853293899575672 ]
    mass: 32.065000
    reduced_to: 24
  - symbol: S  # 25
    coordinates: [  0.250000000000000,  0.625304831061906,  0.778247959974339 ]
    mass: 32.065000
    reduced_to: 25
  - symbol: S  # 26
    coordinates: [  0.250000000000000,  0.125304831061906,  0.721752040025661 ]
    mass: 32.065000
    reduced_to: 26
  - symbol: S  # 27
    coordinates: [  0.750000000000000,  0.374695168938094,  0.221752040025661 ]
    mass: 32.065000
    reduced_to: 27
  - symbol: S  # 28
    coordinates: [  0.750000000000000,  0.874695168938094,  0.278247959974339 ]
    mass: 32.065000
    reduced_to: 28

supercell:
  lattice:
  - [    26.323887033331768,     0.000000000000000,     0.000000000000001 ] # a
  - [    -0.000000000000002,    28.592545140291634,     0.000000000000002 ] # b
  - [     0.000000000000000,     0.000000000000000,    37.137823372058087 ] # c
  points:
  - symbol: As # 1
    coordinates: [  0.035714285714286,  0.112905712697545,  0.246628167793770 ]
    mass: 74.921600
    reduced_to: 1
  - symbol: As # 2
    coordinates: [  0.178571428571429,  0.112905712697545,  0.246628167793770 ]
    mass: 74.921600
    reduced_to: 1
  - symbol: As # 3
    coordinates: [  0.321428571428571,  0.112905712697545,  0.246628167793770 ]
    mass: 74.921600
    reduced_to: 1
  - symbol: As # 4
    coordinates: [  0.464285714285714,  0.112905712697545,  0.246628167793770 ]
    mass: 74.921600
    reduced_to: 1
  - symbol: As # 5
    coordinates: [  0.607142857142857,  0.112905712697545,  0.246628167793770 ]
    mass: 74.921600
    reduced_to: 1
  - symbol: As # 6
    coordinates: [  0.750000000000000,  0.112905712697545,  0.246628167793770 ]
    mass: 74.921600
    reduced_to: 1
  - symbol: As # 7
    coordinates: [  0.892857142857143,  0.112905712697545,  0.246628167793770 ]
    mass: 74.921600
    reduced_to: 1
  - symbol: As # 8
    coordinates: [  0.035714285714286,  0.446239046030879,  0.246628167793770 ]
    mass: 74.921600
    reduced_to: 1
  - symbol: As # 9
    coordinates: [  0.178571428571429,  0.446239046030879,  0.246628167793770 ]
    mass: 74.921600
    reduced_to: 1
  - symbol: As # 10
    coordinates: [  0.321428571428571,  0.446239046030879,  0.246628167793770 ]
    mass: 74.921600
    reduced_to: 1
  - symbol: As # 11
    coordinates: [  0.464285714285714,  0.446239046030879,  0.246628167793770 ]
    mass: 74.921600
    reduced_to: 1
  - symbol: As # 12
    coordinates: [  0.607142857142857,  0.446239046030879,  0.246628167793770 ]
    mass: 74.921600
    reduced_to: 1
  - symbol: As # 13
    coordinates: [  0.750000000000000,  0.446239046030879,  0.246628167793770 ]
    mass: 74.921600
    reduced_to: 1
  - symbol: As # 14
    coordinates: [  0.892857142857143,  0.446239046030879,  0.246628167793770 ]
    mass: 74.921600
    reduced_to: 1
  - symbol: As # 15
    coordinates: [  0.035714285714286,  0.779572379364212,  0.246628167793770 ]
    mass: 74.921600
    reduced_to: 1
  - symbol: As # 16
    coordinates: [  0.178571428571429,  0.779572379364212,  0.246628167793770 ]
    mass: 74.921600
    reduced_to: 1
  - symbol: As # 17
    coordinates: [  0.321428571428571,  0.779572379364212,  0.246628167793770 ]
    mass: 74.921600
    reduced_to: 1
  - symbol: As # 18
    coordinates: [  0.464285714285714,  0.779572379364212,  0.246628167793770 ]
    mass: 74.921600
    reduced_to: 1
  - symbol: As # 19
    coordinates: [  0.607142857142857,  0.779572379364212,  0.246628167793770 ]
    mass: 74.921600
    reduced_to: 1
  - symbol: As # 20
    coordinates: [  0.750000000000000,  0.779572379364212,  0.246628167793770 ]
    mass: 74.921600
    reduced_to: 1
  - symbol: As # 21
    coordinates: [  0.892857142857143,  0.779572379364212,  0.246628167793770 ]
    mass: 74.921600
    reduced_to: 1
  - symbol: As # 22
    coordinates: [  0.035714285714286,  0.112905712697545,  0.746628167793770 ]
    mass: 74.921600
    reduced_to: 1
  - symbol: As # 23
    coordinates: [  0.178571428571429,  0.112905712697545,  0.746628167793770 ]
    mass: 74.921600
    reduced_to: 1
  - symbol: As # 24
    coordinates: [  0.321428571428571,  0.112905712697545,  0.746628167793770 ]
    mass: 74.921600
    reduced_to: 1
  - symbol: As # 25
    coordinates: [  0.464285714285714,  0.112905712697545,  0.746628167793770 ]
    mass: 74.921600
    reduced_to: 1
  - symbol: As # 26
    coordinates: [  0.607142857142857,  0.112905712697545,  0.746628167793770 ]
    mass: 74.921600
    reduced_to: 1
  - symbol: As # 27
    coordinates: [  0.750000000000000,  0.112905712697545,  0.746628167793770 ]
    mass: 74.921600
    reduced_to: 1
  - symbol: As # 28
    coordinates: [  0.892857142857143,  0.112905712697545,  0.746628167793770 ]
    mass: 74.921600
    reduced_to: 1
  - symbol: As # 29
    coordinates: [  0.035714285714286,  0.446239046030879,  0.746628167793770 ]
    mass: 74.921600
    reduced_to: 1
  - symbol: As # 30
    coordinates: [  0.178571428571429,  0.446239046030879,  0.746628167793770 ]
    mass: 74.921600
    reduced_to: 1
  - symbol: As # 31
    coordinates: [  0.321428571428571,  0.446239046030879,  0.746628167793770 ]
    mass: 74.921600
    reduced_to: 1
  - symbol: As # 32
    coordinates: [  0.464285714285714,  0.446239046030879,  0.746628167793770 ]
    mass: 74.921600
    reduced_to: 1
  - symbol: As # 33
    coordinates: [  0.607142857142857,  0.446239046030879,  0.746628167793770 ]
    mass: 74.921600
    reduced_to: 1
  - symbol: As # 34
    coordinates: [  0.750000000000000,  0.446239046030879,  0.746628167793770 ]
    mass: 74.921600
    reduced_to: 1
  - symbol: As # 35
    coordinates: [  0.892857142857143,  0.446239046030879,  0.746628167793770 ]
    mass: 74.921600
    reduced_to: 1
  - symbol: As # 36
    coordinates: [  0.035714285714286,  0.779572379364212,  0.746628167793770 ]
    mass: 74.921600
    reduced_to: 1
  - symbol: As # 37
    coordinates: [  0.178571428571429,  0.779572379364212,  0.746628167793770 ]
    mass: 74.921600
    reduced_to: 1
  - symbol: As # 38
    coordinates: [  0.321428571428571,  0.779572379364212,  0.746628167793770 ]
    mass: 74.921600
    reduced_to: 1
  - symbol: As # 39
    coordinates: [  0.464285714285714,  0.779572379364212,  0.746628167793770 ]
    mass: 74.921600
    reduced_to: 1
  - symbol: As # 40
    coordinates: [  0.607142857142857,  0.779572379364212,  0.746628167793770 ]
    mass: 74.921600
    reduced_to: 1
  - symbol: As # 41
    coordinates: [  0.750000000000000,  0.779572379364212,  0.746628167793770 ]
    mass: 74.921600
    reduced_to: 1
  - symbol: As # 42
    coordinates: [  0.892857142857143,  0.779572379364212,  0.746628167793770 ]
    mass: 74.921600
    reduced_to: 1
  - symbol: As # 43
    coordinates: [  0.035714285714286,  0.279572379364212,  0.003371832206230 ]
    mass: 74.921600
    reduced_to: 43
  - symbol: As # 44
    coordinates: [  0.178571428571429,  0.279572379364212,  0.003371832206230 ]
    mass: 74.921600
    reduced_to: 43
  - symbol: As # 45
    coordinates: [  0.321428571428571,  0.279572379364212,  0.003371832206230 ]
    mass: 74.921600
    reduced_to: 43
  - symbol: As # 46
    coordinates: [  0.464285714285714,  0.279572379364212,  0.003371832206230 ]
    mass: 74.921600
    reduced_to: 43
  - symbol: As # 47
    coordinates: [  0.607142857142857,  0.279572379364212,  0.003371832206230 ]
    mass: 74.921600
    reduced_to: 43
  - symbol: As # 48
    coordinates: [  0.750000000000000,  0.279572379364212,  0.003371832206230 ]
    mass: 74.921600
    reduced_to: 43
  - symbol: As # 49
    coordinates: [  0.892857142857143,  0.279572379364212,  0.003371832206230 ]
    mass: 74.921600
    reduced_to: 43
  - symbol: As # 50
    coordinates: [  0.035714285714286,  0.612905712697545,  0.003371832206230 ]
    mass: 74.921600
    reduced_to: 43
  - symbol: As # 51
    coordinates: [  0.178571428571429,  0.612905712697545,  0.003371832206230 ]
    mass: 74.921600
    reduced_to: 43
  - symbol: As # 52
    coordinates: [  0.321428571428571,  0.612905712697545,  0.003371832206230 ]
    mass: 74.921600
    reduced_to: 43
  - symbol: As # 53
    coordinates: [  0.464285714285714,  0.612905712697545,  0.003371832206230 ]
    mass: 74.921600
    reduced_to: 43
  - symbol: As # 54
    coordinates: [  0.607142857142857,  0.612905712697545,  0.003371832206230 ]
    mass: 74.921600
    reduced_to: 43
  - symbol: As # 55
    coordinates: [  0.750000000000000,  0.612905712697545,  0.003371832206230 ]
    mass: 74.921600
    reduced_to: 43
  - symbol: As # 56
    coordinates: [  0.892857142857143,  0.612905712697545,  0.003371832206230 ]
    mass: 74.921600
    reduced_to: 43
  - symbol: As # 57
    coordinates: [  0.035714285714286,  0.946239046030879,  0.003371832206230 ]
    mass: 74.921600
    reduced_to: 43
  - symbol: As # 58
    coordinates: [  0.178571428571429,  0.946239046030879,  0.003371832206230 ]
    mass: 74.921600
    reduced_to: 43
  - symbol: As # 59
    coordinates: [  0.321428571428571,  0.946239046030879,  0.003371832206230 ]
    mass: 74.921600
    reduced_to: 43
  - symbol: As # 60
    coordinates: [  0.464285714285714,  0.946239046030879,  0.003371832206230 ]
    mass: 74.921600
    reduced_to: 43
  - symbol: As # 61
    coordinates: [  0.607142857142857,  0.946239046030879,  0.003371832206230 ]
    mass: 74.921600
    reduced_to: 43
  - symbol: As # 62
    coordinates: [  0.750000000000000,  0.946239046030879,  0.003371832206230 ]
    mass: 74.921600
    reduced_to: 43
  - symbol: As # 63
    coordinates: [  0.892857142857143,  0.946239046030879,  0.003371832206230 ]
    mass: 74.921600
    reduced_to: 43
  - symbol: As # 64
    coordinates: [  0.035714285714286,  0.279572379364212,  0.503371832206230 ]
    mass: 74.921600
    reduced_to: 43
  - symbol: As # 65
    coordinates: [  0.178571428571429,  0.279572379364212,  0.503371832206230 ]
    mass: 74.921600
    reduced_to: 43
  - symbol: As # 66
    coordinates: [  0.321428571428571,  0.279572379364212,  0.503371832206230 ]
    mass: 74.921600
    reduced_to: 43
  - symbol: As # 67
    coordinates: [  0.464285714285714,  0.279572379364212,  0.503371832206230 ]
    mass: 74.921600
    reduced_to: 43
  - symbol: As # 68
    coordinates: [  0.607142857142857,  0.279572379364212,  0.503371832206230 ]
    mass: 74.921600
    reduced_to: 43
  - symbol: As # 69
    coordinates: [  0.750000000000000,  0.279572379364212,  0.503371832206230 ]
    mass: 74.921600
    reduced_to: 43
  - symbol: As # 70
    coordinates: [  0.892857142857143,  0.279572379364212,  0.503371832206230 ]
    mass: 74.921600
    reduced_to: 43
  - symbol: As # 71
    coordinates: [  0.035714285714286,  0.612905712697545,  0.503371832206230 ]
    mass: 74.921600
    reduced_to: 43
  - symbol: As # 72
    coordinates: [  0.178571428571429,  0.612905712697545,  0.503371832206230 ]
    mass: 74.921600
    reduced_to: 43
  - symbol: As # 73
    coordinates: [  0.321428571428571,  0.612905712697545,  0.503371832206230 ]
    mass: 74.921600
    reduced_to: 43
  - symbol: As # 74
    coordinates: [  0.464285714285714,  0.612905712697545,  0.503371832206230 ]
    mass: 74.921600
    reduced_to: 43
  - symbol: As # 75
    coordinates: [  0.607142857142857,  0.612905712697545,  0.503371832206230 ]
    mass: 74.921600
    reduced_to: 43
  - symbol: As # 76
    coordinates: [  0.750000000000000,  0.612905712697545,  0.503371832206230 ]
    mass: 74.921600
    reduced_to: 43
  - symbol: As # 77
    coordinates: [  0.892857142857143,  0.612905712697545,  0.503371832206230 ]
    mass: 74.921600
    reduced_to: 43
  - symbol: As # 78
    coordinates: [  0.035714285714286,  0.946239046030879,  0.503371832206230 ]
    mass: 74.921600
    reduced_to: 43
  - symbol: As # 79
    coordinates: [  0.178571428571429,  0.946239046030879,  0.503371832206230 ]
    mass: 74.921600
    reduced_to: 43
  - symbol: As # 80
    coordinates: [  0.321428571428571,  0.946239046030879,  0.503371832206230 ]
    mass: 74.921600
    reduced_to: 43
  - symbol: As # 81
    coordinates: [  0.464285714285714,  0.946239046030879,  0.503371832206230 ]
    mass: 74.921600
    reduced_to: 43
  - symbol: As # 82
    coordinates: [  0.607142857142857,  0.946239046030879,  0.503371832206230 ]
    mass: 74.921600
    reduced_to: 43
  - symbol: As # 83
    coordinates: [  0.750000000000000,  0.946239046030879,  0.503371832206230 ]
    mass: 74.921600
    reduced_to: 43
  - symbol: As # 84
    coordinates: [  0.892857142857143,  0.946239046030879,  0.503371832206230 ]
    mass: 74.921600
    reduced_to: 43
  - symbol: As # 85
    coordinates: [  0.107142857142857,  0.220427620635788,  0.253371832206230 ]
    mass: 74.921600
    reduced_to: 85
  - symbol: As # 86
    coordinates: [  0.250000000000000,  0.220427620635788,  0.253371832206230 ]
    mass: 74.921600
    reduced_to: 85
  - symbol: As # 87
    coordinates: [  0.392857142857143,  0.220427620635788,  0.253371832206230 ]
    mass: 74.921600
    reduced_to: 85
  - symbol: As # 88
    coordinates: [  0.535714285714286,  0.220427620635788,  0.253371832206230 ]
    mass: 74.921600
    reduced_to: 85
  - symbol: As # 89
    coordinates: [  0.678571428571428,  0.220427620635788,  0.253371832206230 ]
    mass: 74.921600
    reduced_to: 85
  - symbol: As # 90
    coordinates: [  0.821428571428571,  0.220427620635788,  0.253371832206230 ]
    mass: 74.921600
    reduced_to: 85
  - symbol: As # 91
    coordinates: [  0.964285714285714,  0.220427620635788,  0.253371832206230 ]
    mass: 74.921600
    reduced_to: 85
  - symbol: As # 92
    coordinates: [  0.107142857142857,  0.553760953969121,  0.253371832206230 ]
    mass: 74.921600
    reduced_to: 85
  - symbol: As # 93
    coordinates: [  0.250000000000000,  0.553760953969121,  0.253371832206230 ]
    mass: 74.921600
    reduced_to: 85
  - symbol: As # 94
    coordinates: [  0.392857142857143,  0.553760953969121,  0.253371832206230 ]
    mass: 74.921600
    reduced_to: 85
  - symbol: As # 95
    coordinates: [  0.535714285714286,  0.553760953969121,  0.253371832206230 ]
    mass: 74.921600
    reduced_to: 85
  - symbol: As # 96
    coordinates: [  0.678571428571428,  0.553760953969121,  0.253371832206230 ]
    mass: 74.921600
    reduced_to: 85
  - symbol: As # 97
    coordinates: [  0.821428571428571,  0.553760953969121,  0.253371832206230 ]
    mass: 74.921600
    reduced_to: 85
  - symbol: As # 98
    coordinates: [  0.964285714285714,  0.553760953969121,  0.253371832206230 ]
    mass: 74.921600
    reduced_to: 85
  - symbol: As # 99
    coordinates: [  0.107142857142857,  0.887094287302455,  0.253371832206230 ]
    mass: 74.921600
    reduced_to: 85
  - symbol: As # 100
    coordinates: [  0.250000000000000,  0.887094287302455,  0.253371832206230 ]
    mass: 74.921600
    reduced_to: 85
  - symbol: As # 101
    coordinates: [  0.392857142857143,  0.887094287302455,  0.253371832206230 ]
    mass: 74.921600
    reduced_to: 85
  - symbol: As # 102
    coordinates: [  0.535714285714286,  0.887094287302455,  0.253371832206230 ]
    mass: 74.921600
    reduced_to: 85
  - symbol: As # 103
    coordinates: [  0.678571428571428,  0.887094287302455,  0.253371832206230 ]
    mass: 74.921600
    reduced_to: 85
  - symbol: As # 104
    coordinates: [  0.821428571428571,  0.887094287302455,  0.253371832206230 ]
    mass: 74.921600
    reduced_to: 85
  - symbol: As # 105
    coordinates: [  0.964285714285714,  0.887094287302455,  0.253371832206230 ]
    mass: 74.921600
    reduced_to: 85
  - symbol: As # 106
    coordinates: [  0.107142857142857,  0.220427620635788,  0.753371832206230 ]
    mass: 74.921600
    reduced_to: 85
  - symbol: As # 107
    coordinates: [  0.250000000000000,  0.220427620635788,  0.753371832206230 ]
    mass: 74.921600
    reduced_to: 85
  - symbol: As # 108
    coordinates: [  0.392857142857143,  0.220427620635788,  0.753371832206230 ]
    mass: 74.921600
    reduced_to: 85
  - symbol: As # 109
    coordinates: [  0.535714285714286,  0.220427620635788,  0.753371832206230 ]
    mass: 74.921600
    reduced_to: 85
  - symbol: As # 110
    coordinates: [  0.678571428571428,  0.220427620635788,  0.753371832206230 ]
    mass: 74.921600
    reduced_to: 85
  - symbol: As # 111
    coordinates: [  0.821428571428571,  0.220427620635788,  0.753371832206230 ]
    mass: 74.921600
    reduced_to: 85
  - symbol: As # 112
    coordinates: [  0.964285714285714,  0.220427620635788,  0.753371832206230 ]
    mass: 74.921600
    reduced_to: 85
  - symbol: As # 113
    coordinates: [  0.107142857142857,  0.553760953969121,  0.753371832206230 ]
    mass: 74.921600
    reduced_to: 85
  - symbol: As # 114
    coordinates: [  0.250000000000000,  0.553760953969121,  0.753371832206230 ]
    mass: 74.921600
    reduced_to: 85
  - symbol: As # 115
    coordinates: [  0.392857142857143,  0.553760953969121,  0.753371832206230 ]
    mass: 74.921600
    reduced_to: 85
  - symbol: As # 116
    coordinates: [  0.535714285714286,  0.553760953969121,  0.753371832206230 ]
    mass: 74.921600
    reduced_to: 85
  - symbol: As # 117
    coordinates: [  0.678571428571428,  0.553760953969121,  0.753371832206230 ]
    mass: 74.921600
    reduced_to: 85
  - symbol: As # 118
    coordinates: [  0.821428571428571,  0.553760953969121,  0.753371832206230 ]
    mass: 74.921600
    reduced_to: 85
  - symbol: As # 119
    coordinates: [  0.964285714285714,  0.553760953969121,  0.753371832206230 ]
    mass: 74.921600
    reduced_to: 85
  - symbol: As # 120
    coordinates: [  0.107142857142857,  0.887094287302455,  0.753371832206230 ]
    mass: 74.921600
    reduced_to: 85
  - symbol: As # 121
    coordinates: [  0.250000000000000,  0.887094287302455,  0.753371832206230 ]
    mass: 74.921600
    reduced_to: 85
  - symbol: As # 122
    coordinates: [  0.392857142857143,  0.887094287302455,  0.753371832206230 ]
    mass: 74.921600
    reduced_to: 85
  - symbol: As # 123
    coordinates: [  0.535714285714286,  0.887094287302455,  0.753371832206230 ]
    mass: 74.921600
    reduced_to: 85
  - symbol: As # 124
    coordinates: [  0.678571428571428,  0.887094287302455,  0.753371832206230 ]
    mass: 74.921600
    reduced_to: 85
  - symbol: As # 125
    coordinates: [  0.821428571428571,  0.887094287302455,  0.753371832206230 ]
    mass: 74.921600
    reduced_to: 85
  - symbol: As # 126
    coordinates: [  0.964285714285714,  0.887094287302455,  0.753371832206230 ]
    mass: 74.921600
    reduced_to: 85
  - symbol: As # 127
    coordinates: [  0.107142857142857,  0.053760953969121,  0.496628167793770 ]
    mass: 74.921600
    reduced_to: 127
  - symbol: As # 128
    coordinates: [  0.250000000000000,  0.053760953969121,  0.496628167793770 ]
    mass: 74.921600
    reduced_to: 127
  - symbol: As # 129
    coordinates: [  0.392857142857143,  0.053760953969121,  0.496628167793770 ]
    mass: 74.921600
    reduced_to: 127
  - symbol: As # 130
    coordinates: [  0.535714285714286,  0.053760953969121,  0.496628167793770 ]
    mass: 74.921600
    reduced_to: 127
  - symbol: As # 131
    coordinates: [  0.678571428571428,  0.053760953969121,  0.496628167793770 ]
    mass: 74.921600
    reduced_to: 127
  - symbol: As # 132
    coordinates: [  0.821428571428571,  0.053760953969121,  0.496628167793770 ]
    mass: 74.921600
    reduced_to: 127
  - symbol: As # 133
    coordinates: [  0.964285714285714,  0.053760953969121,  0.496628167793770 ]
    mass: 74.921600
    reduced_to: 127
  - symbol: As # 134
    coordinates: [  0.107142857142857,  0.387094287302455,  0.496628167793770 ]
    mass: 74.921600
    reduced_to: 127
  - symbol: As # 135
    coordinates: [  0.250000000000000,  0.387094287302455,  0.496628167793770 ]
    mass: 74.921600
    reduced_to: 127
  - symbol: As # 136
    coordinates: [  0.392857142857143,  0.387094287302455,  0.496628167793770 ]
    mass: 74.921600
    reduced_to: 127
  - symbol: As # 137
    coordinates: [  0.535714285714286,  0.387094287302455,  0.496628167793770 ]
    mass: 74.921600
    reduced_to: 127
  - symbol: As # 138
    coordinates: [  0.678571428571428,  0.387094287302455,  0.496628167793770 ]
    mass: 74.921600
    reduced_to: 127
  - symbol: As # 139
    coordinates: [  0.821428571428571,  0.387094287302455,  0.496628167793770 ]
    mass: 74.921600
    reduced_to: 127
  - symbol: As # 140
    coordinates: [  0.964285714285714,  0.387094287302455,  0.496628167793770 ]
    mass: 74.921600
    reduced_to: 127
  - symbol: As # 141
    coordinates: [  0.107142857142857,  0.720427620635788,  0.496628167793770 ]
    mass: 74.921600
    reduced_to: 127
  - symbol: As # 142
    coordinates: [  0.250000000000000,  0.720427620635788,  0.496628167793770 ]
    mass: 74.921600
    reduced_to: 127
  - symbol: As # 143
    coordinates: [  0.392857142857143,  0.720427620635788,  0.496628167793770 ]
    mass: 74.921600
    reduced_to: 127
  - symbol: As # 144
    coordinates: [  0.535714285714286,  0.720427620635788,  0.496628167793770 ]
    mass: 74.921600
    reduced_to: 127
  - symbol: As # 145
    coordinates: [  0.678571428571428,  0.720427620635788,  0.496628167793770 ]
    mass: 74.921600
    reduced_to: 127
  - symbol: As # 146
    coordinates: [  0.821428571428571,  0.720427620635788,  0.496628167793770 ]
    mass: 74.921600
    reduced_to: 127
  - symbol: As # 147
    coordinates: [  0.964285714285714,  0.720427620635788,  0.496628167793770 ]
    mass: 74.921600
    reduced_to: 127
  - symbol: As # 148
    coordinates: [  0.107142857142857,  0.053760953969121,  0.996628167793770 ]
    mass: 74.921600
    reduced_to: 127
  - symbol: As # 149
    coordinates: [  0.250000000000000,  0.053760953969121,  0.996628167793770 ]
    mass: 74.921600
    reduced_to: 127
  - symbol: As # 150
    coordinates: [  0.392857142857143,  0.053760953969121,  0.996628167793770 ]
    mass: 74.921600
    reduced_to: 127
  - symbol: As # 151
    coordinates: [  0.535714285714286,  0.053760953969121,  0.996628167793770 ]
    mass: 74.921600
    reduced_to: 127
  - symbol: As # 152
    coordinates: [  0.678571428571428,  0.053760953969121,  0.996628167793770 ]
    mass: 74.921600
    reduced_to: 127
  - symbol: As # 153