phonopy:
  version: "2.27.0"
  frequency_unit_conversion_factor: 15.633302
  symmetry_tolerance: 1.00000e-04

space_group:
  type: "Pnma"
  number: 62
  Hall_symbol: "-P 2ac 2n"

primitive_matrix:
- [  0.000000000000000, -1.000000000000000,  0.000000000000000 ]
- [  1.000000000000000, -0.000000000000000,  0.000000000000000 ]
- [  0.000000000000000, -0.000000000000000,  1.000000000000000 ]

supercell_matrix:
- [   5,   0,   0 ]
- [   0,   2,   0 ]
- [   0,   0,   2 ]

primitive_cell:
  lattice:
  - [    -0.000000000000000,    10.686325410343001,     0.000000000000010 ] # a
  - [    -4.531630487048997,    -0.000000000000000,    -0.000000000000000 ] # b
  - [     0.000000000000000,     0.000000000000003,    11.810017683104137 ] # c
  points:
  - symbol: Ba # 1
    coordinates: [  0.247619021126349,  0.749999999999998,  0.819778231895069 ]
    mass: 137.327000
  - symbol: Ba # 2
    coordinates: [  0.752380978873650,  0.249999999999998,  0.180221768104930 ]
    mass: 137.327000
  - symbol: Ba # 3
    coordinates: [  0.747619021126349,  0.749999999999999,  0.680221768104930 ]
    mass: 137.327000
  - symbol: Ba # 4
    coordinates: [  0.252380978873650,  0.249999999999999,  0.319778231895069 ]
    mass: 137.327000
  - symbol: Zn # 5
    coordinates: [  0.903365469760267,  0.249999999999998,  0.452686573653400 ]
    mass: 65.380000
  - symbol: Zn # 6
    coordinates: [  0.096634530239732,  0.749999999999999,  0.547313426346600 ]
    mass: 65.380000
  - symbol: Zn # 7
    coordinates: [  0.596634530239732,  0.749999999999998,  0.952686573653400 ]
    mass: 65.380000
  - symbol: Zn # 8
    coordinates: [  0.403365469760267,  0.249999999999998,  0.047313426346599 ]
    mass: 65.380000
  - symbol: Zn # 9
    coordinates: [  0.446562779348038,  0.249999999999998,  0.620397182999395 ]
    mass: 65.380000
  - symbol: Zn # 10
    coordinates: [  0.553437220651961,  0.749999999999999,  0.379602817000604 ]
    mass: 65.380000
  - symbol: Zn # 11
    coordinates: [  0.946562779348037,  0.249999999999998,  0.879602817000605 ]
    mass: 65.380000
  - symbol: Zn # 12
    coordinates: [  0.053437220651962,  0.749999999999999,  0.120397182999395 ]
    mass: 65.380000
  - symbol: Sb # 13
    coordinates: [  0.150355492102440,  0.249999999999999,  0.034709397116358 ]
    mass: 121.760000
  - symbol: Sb # 14
    coordinates: [  0.849644507897559,  0.749999999999999,  0.965290602883642 ]
    mass: 121.760000
  - symbol: Sb # 15
    coordinates: [  0.349644507897560,  0.749999999999998,  0.534709397116358 ]
    mass: 121.760000
  - symbol: Sb # 16
    coordinates: [  0.650355492102439,  0.249999999999999,  0.465290602883642 ]
    mass: 121.760000
  - symbol: Sb # 17
    coordinates: [  0.025772667932658,  0.249999999999998,  0.662652617329941 ]
    mass: 121.760000
  - symbol: Sb # 18
    coordinates: [  0.974227332067341,  0.749999999999998,  0.337347382670058 ]
    mass: 121.760000
  - symbol: Sb # 19
    coordinates: [  0.525772667932659,  0.249999999999998,  0.837347382670058 ]
    mass: 121.760000
  - symbol: Sb # 20
    coordinates: [  0.474227332067340,  0.749999999999998,  0.162652617329941 ]
    mass: 121.760000
  reciprocal_lattice: # without 2pi
  - [    -0.000000000000000,     0.093577535925691,    -0.000000000000000 ] # a*
  - [    -0.220671125516061,    -0.000000000000000,     0.000000000000000 ] # b*
  - [    -0.000000000000000,    -0.000000000000000,     0.084673878298306 ] # c*

unit_cell:
  lattice:
  - [     4.531630487048997,     0.000000000000000,     0.000000000000000 ] # a
  - [    -0.000000000000000,    10.686325410342999,     0.000000000000010 ] # b
  - [     0.000000000000000,     0.000000000000003,    11.810017683104135 ] # c
  points:
  - symbol: Ba # 1
    coordinates: [  0.250000000000002,  0.247619021126349,  0.819778231895069 ]
    mass: 137.327000
    reduced_to: 1
  - symbol: Ba # 2
    coordinates: [  0.750000000000002,  0.752380978873650,  0.180221768104930 ]
    mass: 137.327000
    reduced_to: 2
  - symbol: Ba # 3
    coordinates: [  0.250000000000001,  0.747619021126349,  0.680221768104930 ]
    mass: 137.327000
    reduced_to: 3
  - symbol: Ba # 4
    coordinates: [  0.750000000000001,  0.252380978873650,  0.319778231895070 ]
    mass: 137.327000
    reduced_to: 4
  - symbol: Zn # 5
    coordinates: [  0.750000000000001,  0.903365469760267,  0.452686573653400 ]
    mass: 65.380000
    reduced_to: 5
  - symbol: Zn # 6
    coordinates: [  0.250000000000001,  0.096634530239732,  0.547313426346600 ]
    mass: 65.380000
    reduced_to: 6
  - symbol: Zn # 7
    coordinates: [  0.250000000000002,  0.596634530239732,  0.952686573653400 ]
    mass: 65.380000
    reduced_to: 7
  - symbol: Zn # 8
    coordinates: [  0.750000000000002,  0.403365469760267,  0.047313426346599 ]
    mass: 65.380000
    reduced_to: 8
  - symbol: Zn # 9
    coordinates: [  0.750000000000001,  0.446562779348038,  0.620397182999396 ]
    mass: 65.380000
    reduced_to: 9
  - symbol: Zn # 10
    coordinates: [  0.250000000000001,  0.553437220651961,  0.379602817000604 ]
    mass: 65.380000
    reduced_to: 10
  - symbol: Zn # 11
    coordinates: [  0.750000000000001,  0.946562779348037,  0.879602817000605 ]
    mass: 65.380000
    reduced_to: 11
  - symbol: Zn # 12
    coordinates: [  0.250000000000001,  0.053437220651962,  0.120397182999395 ]
    mass: 65.380000
    reduced_to: 12
  - symbol: Sb # 13
    coordinates: [  0.750000000000001,  0.150355492102440,  0.034709397116358 ]
    mass: 121.760000
    reduced_to: 13
  - symbol: Sb # 14
    coordinates: [  0.250000000000001,  0.849644507897559,  0.965290602883642 ]
    mass: 121.760000
    reduced_to: 14
  - symbol: Sb # 15
    coordinates: [  0.250000000000002,  0.349644507897560,  0.534709397116358 ]
    mass: 121.760000
    reduced_to: 15
  - symbol: Sb # 16
    coordinates: [  0.750000000000001,  0.650355492102439,  0.465290602883642 ]
    mass: 121.760000
    reduced_to: 16
  - symbol: Sb # 17
    coordinates: [  0.750000000000001,  0.025772667932658,  0.662652617329942 ]
    mass: 121.760000
    reduced_to: 17
  - symbol: Sb # 18
    coordinates: [  0.250000000000001,  0.974227332067341,  0.337347382670058 ]
    mass: 121.760000
    reduced_to: 18
  - symbol: Sb # 19
    coordinates: [  0.750000000000001,  0.525772667932659,  0.837347382670058 ]
    mass: 121.760000
    reduced_to: 19
  - symbol: Sb # 20
    coordinates: [  0.250000000000002,  0.474227332067340,  0.162652617329941 ]
    mass: 121.760000
    reduced_to: 20

supercell:
  lattice:
  - [    22.658152435244983,     0.000000000000000,     0.000000000000002 ] # a
  - [    -0.000000000000001,    21.372650820685998,     0.000000000000021 ] # b
  - [     0.000000000000000,     0.000000000000005,    23.620035366208270 ] # c
  points:
  - symbol: Ba # 1
    coordinates: [  0.050000000000000,  0.123809510563175,  0.409889115947535 ]
    mass: 137.327000
    reduced_to: 1
  - symbol: Ba # 2
    coordinates: [  0.250000000000000,  0.123809510563175,  0.409889115947535 ]
    mass: 137.327000
    reduced_to: 1
  - symbol: Ba # 3
    coordinates: [  0.450000000000000,  0.123809510563175,  0.409889115947535 ]
    mass: 137.327000
    reduced_to: 1
  - symbol: Ba # 4
    coordinates: [  0.650000000000000,  0.123809510563175,  0.409889115947535 ]
    mass: 137.327000
    reduced_to: 1
  - symbol: Ba # 5
    coordinates: [  0.850000000000000,  0.123809510563175,  0.409889115947535 ]
    mass: 137.327000
    reduced_to: 1
  - symbol: Ba # 6
    coordinates: [  0.050000000000000,  0.623809510563175,  0.409889115947535 ]
    mass: 137.327000
    reduced_to: 1
  - symbol: Ba # 7
    coordinates: [  0.250000000000000,  0.623809510563175,  0.409889115947535 ]
    mass: 137.327000
    reduced_to: 1
  - symbol: Ba # 8
    coordinates: [  0.450000000000000,  0.623809510563175,  0.409889115947535 ]
    mass: 137.327000
    reduced_to: 1
  - symbol: Ba # 9
    coordinates: [  0.650000000000000,  0.623809510563175,  0.409889115947535 ]
    mass: 137.327000
    reduced_to: 1
  - symbol: Ba # 10
    coordinates: [  0.850000000000000,  0.623809510563175,  0.409889115947535 ]
    mass: 137.327000
    reduced_to: 1
  - symbol: Ba # 11
    coordinates: [  0.050000000000000,  0.123809510563175,  0.909889115947535 ]
    mass: 137.327000
    reduced_to: 1
  - symbol: Ba # 12
    coordinates: [  0.250000000000000,  0.123809510563175,  0.909889115947535 ]
    mass: 137.327000
    reduced_to: 1
  - symbol: Ba # 13
    coordinates: [  0.450000000000000,  0.123809510563175,  0.909889115947535 ]
    mass: 137.327000
    reduced_to: 1
  - symbol: Ba # 14
    coordinates: [  0.650000000000000,  0.123809510563175,  0.909889115947535 ]
    mass: 137.327000
    reduced_to: 1
  - symbol: Ba # 15
    coordinates: [  0.850000000000000,  0.123809510563175,  0.909889115947535 ]
    mass: 137.327000
    reduced_to: 1
  - symbol: Ba # 16
    coordinates: [  0.050000000000000,  0.623809510563175,  0.909889115947535 ]
    mass: 137.327000
    reduced_to: 1
  - symbol: Ba # 17
    coordinates: [  0.250000000000000,  0.623809510563175,  0.909889115947535 ]
    mass: 137.327000
    reduced_to: 1
  - symbol: Ba # 18
    coordinates: [  0.450000000000000,  0.623809510563175,  0.909889115947535 ]
    mass: 137.327000
    reduced_to: 1
  - symbol: Ba # 19
    coordinates: [  0.650000000000000,  0.623809510563175,  0.909889115947535 ]
    mass: 137.327000
    reduced_to: 1
  - symbol: Ba # 20
    coordinates: [  0.850000000000000,  0.623809510563175,  0.909889115947535 ]
    mass: 137.327000
    reduced_to: 1
  - symbol: Ba # 21
    coordinates: [  0.150000000000000,  0.376190489436825,  0.090110884052465 ]
    mass: 137.327000
    reduced_to: 21
  - symbol: Ba # 22
    coordinates: [  0.350000000000000,  0.376190489436825,  0.090110884052465 ]
    mass: 137.327000
    reduced_to: 21
  - symbol: Ba # 23
    coordinates: [  0.550000000000000,  0.376190489436825,  0.090110884052465 ]
    mass: 137.327000
    reduced_to: 21
  - symbol: Ba # 24
    coordinates: [  0.750000000000000,  0.376190489436825,  0.090110884052465 ]
    mass: 137.327000
    reduced_to: 21
  - symbol: Ba # 25
    coordinates: [  0.950000000000000,  0.376190489436825,  0.090110884052465 ]
    mass: 137.327000
    reduced_to: 21
  - symbol: Ba # 26
    coordinates: [  0.150000000000000,  0.876190489436825,  0.090110884052465 ]
    mass: 137.327000
    reduced_to: 21
  - symbol: Ba # 27
    coordinates: [  0.350000000000000,  0.876190489436825,  0.090110884052465 ]
    mass: 137.327000
    reduced_to: 21
  - symbol: Ba # 28
    coordinates: [  0.550000000000000,  0.876190489436825,  0.090110884052465 ]
    mass: 137.327000
    reduced_to: 21
  - symbol: Ba # 29
    coordinates: [  0.750000000000000,  0.876190489436825,  0.090110884052465 ]
    mass: 137.327000
    reduced_to: 21
  - symbol: Ba # 30
    coordinates: [  0.950000000000000,  0.876190489436825,  0.090110884052465 ]
    mass: 137.327000
    reduced_to: 21
  - symbol: Ba # 31
    coordinates: [  0.150000000000000,  0.376190489436825,  0.590110884052465 ]
    mass: 137.327000
    reduced_to: 21
  - symbol: Ba # 32
    coordinates: [  0.350000000000000,  0.376190489436825,  0.590110884052465 ]
    mass: 137.327000
    reduced_to: 21
  - symbol: Ba # 33
    coordinates: [  0.550000000000000,  0.376190489436825,  0.590110884052465 ]
    mass: 137.327000
    reduced_to: 21
  - symbol: Ba # 34
    coordinates: [  0.750000000000000,  0.376190489436825,  0.590110884052465 ]
    mass: 137.327000
    reduced_to: 21
  - symbol: Ba # 35
    coordinates: [  0.950000000000000,  0.376190489436825,  0.590110884052465 ]
    mass: 137.327000
    reduced_to: 21
  - symbol: Ba # 36
    coordinates: [  0.150000000000000,  0.876190489436825,  0.590110884052465 ]
    mass: 137.327000
    reduced_to: 21
  - symbol: Ba # 37
    coordinates: [  0.350000000000000,  0.876190489436825,  0.590110884052465 ]
    mass: 137.327000
    reduced_to: 21
  - symbol: Ba # 38
    coordinates: [  0.550000000000000,  0.876190489436825,  0.590110884052465 ]
    mass: 137.327000
    reduced_to: 21
  - symbol: Ba # 39
    coordinates: [  0.750000000000000,  0.876190489436825,  0.590110884052465 ]
    mass: 137.327000
    reduced_to: 21
  - symbol: Ba # 40
    coordinates: [  0.950000000000000,  0.876190489436825,  0.590110884052465 ]
    mass: 137.327000
    reduced_to: 21
  - symbol: Ba # 41
    coordinates: [  0.050000000000000,  0.373809510563175,  0.340110884052465 ]
    mass: 137.327000
    reduced_to: 41
  - symbol: Ba # 42
    coordinates: [  0.250000000000000,  0.373809510563175,  0.340110884052465 ]
    mass: 137.327000
    reduced_to: 41
  - symbol: Ba # 43
    coordinates: [  0.450000000000000,  0.373809510563175,  0.340110884052465 ]
    mass: 137.327000
    reduced_to: 41
  - symbol: Ba # 44
    coordinates: [  0.650000000000000,  0.373809510563175,  0.340110884052465 ]
    mass: 137.327000
    reduced_to: 41
  - symbol: Ba # 45
    coordinates: [  0.850000000000000,  0.373809510563175,  0.340110884052465 ]
    mass: 137.327000
    reduced_to: 41
  - symbol: Ba # 46
    coordinates: [  0.050000000000000,  0.873809510563175,  0.340110884052465 ]
    mass: 137.327000
    reduced_to: 41
  - symbol: Ba # 47
    coordinates: [  0.250000000000000,  0.873809510563175,  0.340110884052465 ]
    mass: 137.327000
    reduced_to: 41
  - symbol: Ba # 48
    coordinates: [  0.450000000000000,  0.873809510563175,  0.340110884052465 ]
    mass: 137.327000
    reduced_to: 41
  - symbol: Ba # 49
    coordinates: [  0.650000000000000,  0.873809510563175,  0.340110884052465 ]
    mass: 137.327000
    reduced_to: 41
  - symbol: Ba # 50
    coordinates: [  0.850000000000000,  0.873809510563175,  0.340110884052465 ]
    mass: 137.327000
    reduced_to: 41
  - symbol: Ba # 51
    coordinates: [  0.050000000000000,  0.373809510563175,  0.840110884052465 ]
    mass: 137.327000
    reduced_to: 41
  - symbol: Ba # 52
    coordinates: [  0.250000000000000,  0.373809510563175,  0.840110884052465 ]
    mass: 137.327000
    reduced_to: 41
  - symbol: Ba # 53
    coordinates: [  0.450000000000000,  0.373809510563175,  0.840110884052465 ]
    mass: 137.327000
    reduced_to: 41
  - symbol: Ba # 54
    coordinates: [  0.650000000000000,  0.373809510563175,  0.840110884052465 ]
    mass: 137.327000
    reduced_to: 41
  - symbol: Ba # 55
    coordinates: [  0.850000000000000,  0.373809510563175,  0.840110884052465 ]
    mass: 137.327000
    reduced_to: 41
  - symbol: Ba # 56
    coordinates: [  0.050000000000000,  0.873809510563175,  0.840110884052465 ]
    mass: 137.327000
    reduced_to: 41
  - symbol: Ba # 57
    coordinates: [  0.250000000000000,  0.873809510563175,  0.840110884052465 ]
    mass: 137.327000
    reduced_to: 41
  - symbol: Ba # 58
    coordinates: [  0.450000000000000,  0.873809510563175,  0.840110884052465 ]
    mass: 137.327000
    reduced_to: 41
  - symbol: Ba # 59
    coordinates: [  0.650000000000000,  0.873809510563175,  0.840110884052465 ]
    mass: 137.327000
    reduced_to: 41
  - symbol: Ba # 60
    coordinates: [  0.850000000000000,  0.873809510563175,  0.840110884052465 ]
    mass: 137.327000
    reduced_to: 41
  - symbol: Ba # 61
    coordinates: [  0.150000000000000,  0.126190489436825,  0.159889115947535 ]
    mass: 137.327000
    reduced_to: 61
  - symbol: Ba # 62
    coordinates: [  0.350000000000000,  0.126190489436825,  0.159889115947535 ]
    mass: 137.327000
    reduced_to: 61
  - symbol: Ba # 63
    coordinates: [  0.550000000000000,  0.126190489436825,  0.159889115947535 ]
    mass: 137.327000
    reduced_to: 61
  - symbol: Ba # 64
    coordinates: [  0.750000000000000,  0.126190489436825,  0.159889115947535 ]
    mass: 137.327000
    reduced_to: 61
  - symbol: Ba # 65
    coordinates: [  0.950000000000000,  0.126190489436825,  0.159889115947535 ]
    mass: 137.327000
    reduced_to: 61
  - symbol: Ba # 66
    coordinates: [  0.150000000000000,  0.626190489436825,  0.159889115947535 ]
    mass: 137.327000
    reduced_to: 61
  - symbol: Ba # 67
    coordinates: [  0.350000000000000,  0.626190489436825,  0.159889115947535 ]
    mass: 137.327000
    reduced_to: 61
  - symbol: Ba # 68
    coordinates: [  0.550000000000000,  0.626190489436825,  0.159889115947535 ]
    mass: 137.327000
    reduced_to: 61
  - symbol: Ba # 69
    coordinates: [  0.750000000000000,  0.626190489436825,  0.159889115947535 ]
    mass: 137.327000
    reduced_to: 61
  - symbol: Ba # 70
    coordinates: [  0.950000000000000,  0.626190489436825,  0.159889115947535 ]
    mass: 137.327000
    reduced_to: 61
  - symbol: Ba # 71
    coordinates: [  0.150000000000000,  0.126190489436825,  0.659889115947535 ]
    mass: 137.327000
    reduced_to: 61
  - symbol: Ba # 72
    coordinates: [  0.350000000000000,  0.126190489436825,  0.659889115947535 ]
    mass: 137.327000
    reduced_to: 61
  - symbol: Ba # 73
    coordinates: [  0.550000000000000,  0.126190489436825,  0.659889115947535 ]
    mass: 137.327000
    reduced_to: 61
  - symbol: Ba # 74
    coordinates: [  0.750000000000000,  0.126190489436825,  0.659889115947535 ]
    mass: 137.327000
    reduced_to: 61
  - symbol: Ba # 75
    coordinates: [  0.950000000000000,  0.126190489436825,  0.659889115947535 ]
    mass: 137.327000
    reduced_to: 61
  - symbol: Ba # 76
    coordinates: [  0.150000000000000,  0.626190489436825,  0.659889115947535 ]
    mass: 137.327000
    reduced_to: 61
  - symbol: Ba # 77
    coordinates: [  0.350000000000000,  0.626190489436825,  0.659889115947535 ]
    mass: 137.327000
    reduced_to: 61
  - symbol: Ba # 78
    coordinates: [  0.550000000000000,  0.626190489436825,  0.659889115947535 ]
    mass: 137.327000
    reduced_to: 61
  - symbol: Ba # 79
    coordinates: [  0.750000000000000,  0.626190489436825,  0.659889115947535 ]
    mass: 137.327000
    reduced_to: 61
  - symbol: Ba # 80
    coordinates: [  0.950000000000000,  0.626190489436825,  0.659889115947535 ]
    mass: 137.327000
    reduced_to: 61
  - symbol: Zn # 81
    coordinates: [  0.150000000000000,  0.451682734880134,  0.226343286826700 ]
    mass: 65.380000
    reduced_to: 81
  - symbol: Zn # 82
    coordinates: [  0.350000000000000,  0.451682734880134,  0.226343286826700 ]
    mass: 65.380000
    reduced_to: 81
  - symbol: Zn # 83
    coordinates: [  0.550000000000000,  0.451682734880134,  0.226343286826700 ]
    mass: 65.380000
    reduced_to: 81
  - symbol: Zn # 84
    coordinates: [  0.750000000000000,  0.451682734880134,  0.226343286826700 ]
    mass: 65.380000
    reduced_to: 81
  - symbol: Zn # 85
    coordinates: [  0.950000000000000,  0.451682734880134,  0.226343286826700 ]
    mass: 65.380000
    reduced_to: 81
  - symbol: Zn # 86
    coordinates: [  0.150000000000000,  0.951682734880134,  0.226343286826700 ]
    mass: 65.380000
    reduced_to: 81
  - symbol: Zn # 87
    coordinates: [  0.350000000000000,  0.951682734880134,  0.226343286826700 ]
    mass: 65.380000
    reduced_to: 81
  - symbol: Zn # 88
    coordinates: [  0.550000000000000,  0.951682734880134,  0.226343286826700 ]
    mass: 65.380000
    reduced_to: 81
  - symbol: Zn # 89
    coordinates: [  0.750000000000000,  0.951682734880134,  0.226343286826700 ]
    mass: 65.380000
    reduced_to: 81
  - symbol: Zn # 90
    coordinates: [  0.950000000000000,  0.951682734880134,  0.226343286826700 ]
    mass: 65.380000
    reduced_to: 81
  - symbol: Zn # 91
    coordinates: [  0.150000000000000,  0.451682734880134,  0.726343286826700 ]
    mass: 65.380000
    reduced_to: 81
  - symbol: Zn # 92
    coordinates: [  0.350000000000000,  0.451682734880134,  0.726343286826700 ]
    mass: 65.380000
    reduced_to: 81
  - symbol: Zn # 93
    coordinates: [  0.550000000000000,  0.451682734880134,  0.726343286826700 ]
    mass: 65.380000
    reduced_to: 81
  - symbol: Zn # 94
    coordinates: [  0.750000000000000,  0.451682734880134,  0.726343286826700 ]
    mass: 65.380000
    reduced_to: 81
  - symbol: Zn # 95
    coordinates: [  0.950000000000000,  0.451682734880134,  0.726343286826700 ]
    mass: 65.380000
    reduced_to: 81
  - symbol: Zn # 96
    coordinates: [  0.150000000000000,  0.951682734880134,  0.726343286826700 ]
    mass: 65.380000
    reduced_to: 81
  - symbol: Zn # 97
    coordinates: [  0.350000000000000,  0.951682734880134,  0.726343286826700 ]
    mass: 65.380000
    reduced_to: 81
  - symbol: Zn # 98
    coordinates: [  0.550000000000000,  0.951682734880134,  0.726343286826700 ]
    mass: 65.380000
    reduced_to: 81
  - symbol: Zn # 99
    coordinates: [  0.750000000000000,  0.951682734880134,  0.726343286826700 ]
    mass: 65.380000
    reduced_to: 81
  - symbol: Zn # 100
    coordinates: [  0.950000000000000,  0.951682734880134,  0.726343286826700 ]
    mass: 65.380000
    reduced_to: 81
  - symbol: Zn # 101
    coordinates: [  0.050000000000000,  0.048317265119866,  0.273656713173300 ]
    mass: 65.380000
    reduced_to: 101
  - symbol: Zn # 102
    coordinates: [  0.250000000000000,  0.048317265119866,  0.273656713173300 ]
    mass: 65.380000
    reduced_to: 101
  - symbol: Zn # 103
    coordinates: [  0.450000000000000,  0.048317265119866,  0.273656713173300 ]
    mass: 65.380000
    reduced_to: 101
  - symbol: Zn # 104
    coordinates: [  0.650000000000000,  0.048317265119866,  0.273656713173300 ]
    mass: 65.380000
    reduced_to: 101
  - symbol: Zn # 105
    coordinates: [  0.850000000000000,  0.048317265119866,  0.273656713173300 ]
    mass: 65.380000
    reduced_to: 101
  - symbol: Zn # 106
    coordinates: [  0.050000000000000,  0.548317265119866,  0.273656713173300 ]
    mass: 65.380000
    reduced_to: 101
  - symbol: Zn # 107
    coordinates: [  0.250000000000000,  0.548317265119866,  0.273656713173300 ]
    mass: 65.380000
    reduced_to: 101
  - symbol: Zn # 108
    coordinates: [  0.450000000000000,  0.548317265119866,  0.273656713173300 ]
    mass: 65.380000
    reduced_to: 101
  - symbol: Zn # 109
    coordinates: [  0.650000000000000,  0.548317265119866,  0.273656713173300 ]
    mass: 65.380000
    reduced_to: 101
  - symbol: Zn # 110
    coordinates: [  0.850000000000000,  0.548317265119866,  0.273656713173300 ]
    mass: 65.380000
    reduced_to: 101
  - symbol: Zn # 111
    coordinates: [  0.050000000000000,  0.048317265119866,  0.773656713173300 ]
    mass: 65.380000
    reduced_to: 101
  - symbol: Zn # 112
    coordinates: [  0.250000000000000,  0.048317265119866,  0.773656713173300 ]
    mass: 65.380000
    reduced_to: 101
  - symbol: Zn # 113
    coordinates: [  0.450000000000000,  0.048317265119866,  0.773656713173300 ]
    mass: 65.380000
    reduced_to: 101
  - symbol: Zn # 114
    coordinates: [  0.650000000000000,  0.048317265119866,  0.773656713173300 ]
    mass: 65.380000
    reduced_to: 101
  - symbol: Zn # 115
    coordinates: [  0.850000000000000,  0.048317265119866,  0.773656713173300 ]
    mass: 65.380000
    reduced_to: 101
  - symbol: Zn # 116
    coordinates: [  0.050000000000000,  0.548317265119866,  0.773656713173300 ]
    mass: 65.380000
    reduced_to: 101
  - symbol: Zn # 117
    coordinates: [  0.250000000000000,  0.548317265119866,  0.773656713173300 ]
    mass: 65.380000
    reduced_to: 101
  - symbol: Zn # 118
    coordinates: [  0.450000000000000,  0.548317265119866,  0.773656713173300 ]
    mass: 65.380000
    reduced_to: 101
  - symbol: Zn # 119
    coordinates: [  0.650000000000000,  0.548317265119866,  0.773656713173300 ]
    mass: 65.380000
    reduced_to: 101
  - symbol: Zn # 120
    coordinates: [  0.850000000000000,  0.548317265119866,  0.773656713173300 ]
    mass: 65.380000
    reduced_to: 101
  - symbol: Zn # 121
    coordinates: [  0.050000000000000,  0.298317265119866,  0.476343286826700 ]
    mass: 65.380000
    reduced_to: 121
  - symbol: Zn # 122
    coordinates: [  0.250000000000000,  0.298317265119866,  0.476343286826700 ]
    mass: 65.380000
    reduced_to: 121
  - symbol: Zn # 123
    coordinates: [  0.450000000000000,  0.298317265119866,  0.476343286826700 ]
    mass: 65.380000
    reduced_to: 121
  - symbol: Zn # 124
    coordinates: [  0.650000000000000,  0.298317265119866,  0.476343286826700 ]
    mass: 65.380000
    reduced_to: 121
  - symbol: Zn # 125
    coordinates: [  0.850000000000000,  0.298317265119866,  0.476343286826700 ]
    mass: 65.380000
    reduced_to: 121
  - symbol: Zn # 126
    coordinates: [  0.050000000000000,  0.798317265119866,  0.476343286826700 ]
    mass: 65.380000
    reduced_to: 121
  - symbol: Zn # 127
    coordinates: [  0.250000000000000,  0.798317265119866,  0.476343286826700 ]
    mass: 65.380000
    reduced_to: 121
  - symbol: Zn # 128
    coordinates: [  0.450000000000000,  0.798317265119866,  0.476343286826700 ]
    mass: 65.380000
    reduced_to: 121
  - symbol: Zn # 129
    coordinates: [  0.650000000000000,  0.798317265119866,  0.476343286826700 ]
    mass: 65.380000
    reduced_to: 121
  - symbol: Zn # 130
    coordinates: [  0.850000000000000,  0.798317265119866,  0.476343286826700 ]
    mass: 65.380000
    reduced_to: 121
  - symbol: Zn # 131
    coordinates: [  0.050000000000000,  0.298317265119866,  0.976343286826700 ]
    mass: 65.380000
    reduced_to: 121
  - symbol: Zn # 132
    coordinates: [  0.250000000000000,  0.298317265119866,  0.976343286826700 ]
    mass: 65.380000
    reduced_to: 121
  - symbol: Zn # 133
    coordinates: [  0.450000000000000,  0.298317265119866,  0.976343286826700 ]
    mass: 65.380000
    reduced_to: 121
  - symbol: Zn # 134
    coordinates: [  0.650000000000000,  0.298317265119866,  0.976343286826700 ]
    mass: 65.380000
    reduced_to: 121
  - symbol: Zn # 135
    coordinates: [  0.850000000000000,  0.298317265119866,  0.976343286826700 ]
    mass: 65.380000
    reduced_to: 121
  - symbol: Zn # 136
    coordinates: [  0.050000000000000,  0.798317265119866,  0.976343286826700 ]
    mass: 65.380000
    reduced_to: 121
  - symbol: Zn # 137
    coordinates: [  0.250000000000000,  0.798317265119866,  0.976343286826700 ]
    mass: 65.380000
    reduced_to: 121
  - symbol: Zn # 138
    coordinates: [  0.450000000000000,  0.798317265119866,  0.976343286826700 ]
    mass: 65.380000
    reduced_to: 121
  - symbol: Zn # 139
    coordinates: [  0.650000000000000,  0.798317265119866,  0.976343286826700 ]
    mass: 65.380000
    reduced_to: 121
  - symbol: Zn # 140
    coordinates: [  0.850000000000000,  0.798317265119866,  0.976343286826700 ]
    mass: 65.380000
    reduced_to: 121
  - symbol: Zn # 141
    coordinates: [  0.150000000000000,  0.201682734880133,  0.023656713173300 ]
    mass: 65.380000
    reduced_to: 141
  - symbol: Zn # 142
    coordinates: [  0.350000000000000,  0.201682734880133,  0.023656713173300 ]
    mass: 65.380000
    reduced_to: 141
  - symbol: Zn # 143
    coordinates: [  0.550000000000000,  0.201682734880133,  0.023656713173300 ]
    mass: 65.380000
    reduced_to: 141
  - symbol: Zn # 144
    coordinates: [  0.750000000000000,  0.201682734880133,  0.023656713173300 ]
    mass: 65.380000
    reduced_to: 141
  - symbol: Zn # 145
    coordinates: [  0.950000000000000,  0.201682734880133,  0.023656713173300 ]
    mass: 65.380000
    reduced_to: 141
  - symbol: Zn # 146
    coordinates: [  0.150000000000000,  0.701682734880134,  0.023656713173300 ]
    mass: 65.380000
    reduced_to: 141
  - symbol: Zn # 147
    coordinates: [  0.350000000000000,  0.701682734880134,  0.023656713173300 ]
    mass: 65.380000
    reduced_to: 141
  - symbol: Zn # 148
    coordinates: [  0.550000000000000,  0.701682734880134,  0.023656713173300 ]
    mass: 65.380000
    reduced_to: 141
  - symbol: Zn # 149
    coordinates: [  0.750000000000000,  0.701682734880134,  0.023656713173300 ]
    mass: 65.380000
    reduced_to: 141
  - symbol: Zn # 150
    coordinates: [  0.950000000000000,  0.701682734880134,  0.023656713173300 ]
    mass: 65.380000
    reduced_to: 141
  - symbol: Zn # 151
    coordinates: [  0.150000000000000,  0.201682734880133,  0.523656713173300 ]
    mass: 65.380000
    reduced_to: 141
  - symbol: Zn # 152
    coordinates: [  0.350000000000000,  0.201682734880133,  0.523656713173300 ]
    mass: 65.380000
    reduced_to: 141
  - symbol: Zn # 153
    coordinates: [  0.550000000000000,  0.201682734880133,  0.523656713173300 ]
    mass: 65.380000
    reduced_to: 141
  - symbol: Zn # 154
    coordinates: [  0.750000000000000,  0.201682734880133,  0.523656713173300 ]
    mass: 65.380000
    reduced_to: 141
  - symbol: Zn # 155
    coordinates: [  0.950000000000000,  0.201682734880133,  0.523656713173300 ]
    mass: 65.380000
    reduced_to: 141
  - symbol: Zn # 156
    coordinates: [  0.150000000000000,  0.701682734880134,  0.523656713173300 ]
    mass: 65.380000
    reduced_to: 141
  - symbol: Zn # 157
    coordinates: [  0.350000000000000,  0.701682734880134,  0.523656713173300 ]
    mass: 65.380000
    reduced_to: 141
  - symbol: Zn # 158
    coordinates: [  0.550000000000000,  0.701682734880134,  0.523656713173300 ]
    mass: 65.380000
    reduced_to: 141
  - symbol: Zn # 159
    coordinates: [  0.750000000000000,  0.701682734880134,  0.523656713173300 ]
    mass: 65.380000
    reduced_to: 141
  - symbol: Zn # 160
    coordinates: [  0.950000000000000,  0.701682734880134,  0.523656713173300 ]
    mass: 65.380000
    reduced_to: 141
  - symbol: Zn # 161
    coordinates: [  0.150000000000000,  0.223281389674019,  0.310198591499698 ]
    mass: 65.380000
    reduced_to: 161
  - symbol: Zn # 162
    coordinates: [  0.350000000000000,  0.223281389674019,  0.310198591499698 ]
    mass: 65.380000
    reduced_to: 161
  - symbol: Zn # 163
    coordinates: [  0.550000000000000,  0.223281389674019,  0.310198591499698 ]
    mass: 65.380000
    reduced_to: 161
  - symbol: Zn # 164
    coordinates: [  0.750000000000000,  0.223281389674019,  0.310198591499698 ]
    mass: 65.380000
    reduced_to: 161
  - symbol: Zn # 165
    coordinates: [  0.950000000000000,  0.223281389674019,  0.310198591499698 ]
    mass: 65.380000
    reduced_to: 161
  - symbol: Zn # 166
    coordinates: [  0.150000000000000,  0.723281389674019,  0.310198591499698 ]
    mass: 65.380000