phonopy:
  version: "2.27.0"
  frequency_unit_conversion_factor: 15.633302
  symmetry_tolerance: 1.00000e-04

space_group:
  type: "P2_1/c"
  number: 14
  Hall_symbol: "-P 2ybc"

primitive_matrix:
- [  1.000000000000000, -0.000000000000000,  0.000000000000000 ]
- [ -0.000000000000000, -1.000000000000000, -0.000000000000000 ]
- [ -0.000000000000000, -0.000000000000000, -1.000000000000000 ]

supercell_matrix:
- [   0,   2,   0 ]
- [   3,   0,   0 ]
- [   0,   0,  -2 ]

primitive_cell:
  lattice:
  - [     0.000000000000000,     6.770636374784861,    -0.009185261274490 ] # a
  - [   -12.922956399664248,    -0.000000000000000,     0.000000000000000 ] # b
  - [     0.000000000000002,     0.011290812619052,    15.597607071996247 ] # c
  points:
  - symbol: Sr # 1
    coordinates: [  0.248763542781291,  0.121551452229546,  0.997061177936541 ]
    mass: 87.620000
  - symbol: Sr # 2
    coordinates: [  0.751236457218708,  0.621551452229546,  0.502938822063459 ]
    mass: 87.620000
  - symbol: Sr # 3
    coordinates: [  0.751236457218708,  0.878448547770450,  0.002938822063459 ]
    mass: 87.620000
  - symbol: Sr # 4
    coordinates: [  0.248763542781291,  0.378448547770450,  0.497061177936541 ]
    mass: 87.620000
  - symbol: Sr # 5
    coordinates: [  0.749758002598749,  0.127532422087361,  0.496472617700322 ]
    mass: 87.620000
  - symbol: Sr # 6
    coordinates: [  0.250241997401250,  0.627532422087361,  0.003527382299678 ]
    mass: 87.620000
  - symbol: Sr # 7
    coordinates: [  0.250241997401250,  0.872467577912634,  0.503527382299679 ]
    mass: 87.620000
  - symbol: Sr # 8
    coordinates: [  0.749758002598749,  0.372467577912634,  0.996472617700322 ]
    mass: 87.620000
  - symbol: Sr # 9
    coordinates: [  0.993661685534924,  0.278039214748814,  0.241591195364476 ]
    mass: 87.620000
  - symbol: Sr # 10
    coordinates: [  0.006338314465075,  0.778039214748814,  0.258408804635525 ]
    mass: 87.620000
  - symbol: Sr # 11
    coordinates: [  0.006338314465075,  0.721960785251181,  0.758408804635525 ]
    mass: 87.620000
  - symbol: Sr # 12
    coordinates: [  0.993661685534924,  0.221960785251182,  0.741591195364476 ]
    mass: 87.620000
  - symbol: Sr # 13
    coordinates: [  0.492538179592088,  0.471044310831498,  0.251009255245833 ]
    mass: 87.620000
  - symbol: Sr # 14
    coordinates: [  0.507461820407911,  0.971044310831498,  0.248990744754167 ]
    mass: 87.620000
  - symbol: Sr # 15
    coordinates: [  0.507461820407912,  0.528955689168498,  0.748990744754167 ]
    mass: 87.620000
  - symbol: Sr # 16
    coordinates: [  0.492538179592087,  0.028955689168497,  0.751009255245833 ]
    mass: 87.620000
  - symbol: Sb # 17
    coordinates: [  0.261963285835015,  0.367964077528032,  0.071462560895176 ]
    mass: 121.760000
  - symbol: Sb # 18
    coordinates: [  0.738036714164984,  0.867964077528032,  0.428537439104824 ]
    mass: 121.760000
  - symbol: Sb # 19
    coordinates: [  0.738036714164984,  0.632035922471964,  0.928537439104824 ]
    mass: 121.760000
  - symbol: Sb # 20
    coordinates: [  0.261963285835015,  0.132035922471964,  0.571462560895176 ]
    mass: 121.760000
  - symbol: Sb # 21
    coordinates: [  0.531472873813161,  0.220294172749418,  0.159788990609121 ]
    mass: 121.760000
  - symbol: Sb # 22
    coordinates: [  0.468527126186839,  0.720294172749418,  0.340211009390879 ]
    mass: 121.760000
  - symbol: Sb # 23
    coordinates: [  0.468527126186839,  0.779705827250578,  0.840211009390879 ]
    mass: 121.760000
  - symbol: Sb # 24
    coordinates: [  0.531472873813159,  0.279705827250578,  0.659788990609121 ]
    mass: 121.760000
  - symbol: Sb # 25
    coordinates: [  0.419986629043315,  0.206999516405214,  0.342271934142087 ]
    mass: 121.760000
  - symbol: Sb # 26
    coordinates: [  0.580013370956685,  0.706999516405214,  0.157728065857914 ]
    mass: 121.760000
  - symbol: Sb # 27
    coordinates: [  0.580013370956685,  0.793000483594782,  0.657728065857914 ]
    mass: 121.760000
  - symbol: Sb # 28
    coordinates: [  0.419986629043314,  0.293000483594782,  0.842271934142087 ]
    mass: 121.760000
  - symbol: Sb # 29
    coordinates: [  0.085894227252571,  0.046472762810501,  0.348639591316569 ]
    mass: 121.760000
  - symbol: Sb # 30
    coordinates: [  0.914105772747428,  0.546472762810501,  0.151360408683431 ]
    mass: 121.760000
  - symbol: Sb # 31
    coordinates: [  0.914105772747428,  0.953527237189495,  0.651360408683432 ]
    mass: 121.760000
  - symbol: Sb # 32
    coordinates: [  0.085894227252571,  0.453527237189495,  0.848639591316569 ]
    mass: 121.760000
  - symbol: Sb # 33
    coordinates: [  0.969191975867089,  0.028318927276632,  0.167234888814356 ]
    mass: 121.760000
  - symbol: Sb # 34
    coordinates: [  0.030808024132910,  0.528318927276631,  0.332765111185645 ]
    mass: 121.760000
  - symbol: Sb # 35
    coordinates: [  0.030808024132910,  0.971681072723364,  0.832765111185644 ]
    mass: 121.760000
  - symbol: Sb # 36
    coordinates: [  0.969191975867090,  0.471681072723364,  0.667234888814356 ]
    mass: 121.760000
  - symbol: Sb # 37
    coordinates: [  0.762085562091927,  0.380803717233497,  0.418561597671411 ]
    mass: 121.760000
  - symbol: Sb # 38
    coordinates: [  0.237914437908072,  0.880803717233497,  0.081438402328589 ]
    mass: 121.760000
  - symbol: Sb # 39
    coordinates: [  0.237914437908073,  0.619196282766498,  0.581438402328589 ]
    mass: 121.760000
  - symbol: Sb # 40
    coordinates: [  0.762085562091927,  0.119196282766499,  0.918561597671411 ]
    mass: 121.760000
  reciprocal_lattice: # without 2pi
  - [    -0.000000000000000,     0.147696459033746,    -0.000106914671959 ] # a*
  - [    -0.077381674059194,     0.000000000000000,     0.000000000000000 ] # b*
  - [     0.000000000000000,     0.000086976839414,     0.064112335523325 ] # c*

unit_cell:
  lattice:
  - [     0.000000000000000,     6.770636374784859,    -0.009185261274490 ] # a
  - [    12.922956399664248,    -0.000000000000000,    -0.000000000000000 ] # b
  - [    -0.000000000000002,    -0.011290812619052,   -15.597607071996247 ] # c
  points:
  - symbol: Sr # 1
    coordinates: [  0.248763542781291,  0.878448547770454,  0.002938822063459 ]
    mass: 87.620000
    reduced_to: 1
  - symbol: Sr # 2
    coordinates: [  0.751236457218708,  0.378448547770454,  0.497061177936541 ]
    mass: 87.620000
    reduced_to: 2
  - symbol: Sr # 3
    coordinates: [  0.751236457218708,  0.121551452229550,  0.997061177936541 ]
    mass: 87.620000
    reduced_to: 3
  - symbol: Sr # 4
    coordinates: [  0.248763542781291,  0.621551452229550,  0.502938822063459 ]
    mass: 87.620000
    reduced_to: 4
  - symbol: Sr # 5
    coordinates: [  0.749758002598749,  0.872467577912639,  0.503527382299678 ]
    mass: 87.620000
    reduced_to: 5
  - symbol: Sr # 6
    coordinates: [  0.250241997401250,  0.372467577912639,  0.996472617700322 ]
    mass: 87.620000
    reduced_to: 6
  - symbol: Sr # 7
    coordinates: [  0.250241997401250,  0.127532422087366,  0.496472617700321 ]
    mass: 87.620000
    reduced_to: 7
  - symbol: Sr # 8
    coordinates: [  0.749758002598749,  0.627532422087366,  0.003527382299678 ]
    mass: 87.620000
    reduced_to: 8
  - symbol: Sr # 9
    coordinates: [  0.993661685534924,  0.721960785251186,  0.758408804635524 ]
    mass: 87.620000
    reduced_to: 9
  - symbol: Sr # 10
    coordinates: [  0.006338314465075,  0.221960785251186,  0.741591195364475 ]
    mass: 87.620000
    reduced_to: 10
  - symbol: Sr # 11
    coordinates: [  0.006338314465075,  0.278039214748819,  0.241591195364475 ]
    mass: 87.620000
    reduced_to: 11
  - symbol: Sr # 12
    coordinates: [  0.993661685534924,  0.778039214748818,  0.258408804635524 ]
    mass: 87.620000
    reduced_to: 12
  - symbol: Sr # 13
    coordinates: [  0.492538179592089,  0.528955689168502,  0.748990744754167 ]
    mass: 87.620000
    reduced_to: 13
  - symbol: Sr # 14
    coordinates: [  0.507461820407911,  0.028955689168502,  0.751009255245833 ]
    mass: 87.620000
    reduced_to: 14
  - symbol: Sr # 15
    coordinates: [  0.507461820407912,  0.471044310831502,  0.251009255245833 ]
    mass: 87.620000
    reduced_to: 15
  - symbol: Sr # 16
    coordinates: [  0.492538179592088,  0.971044310831503,  0.248990744754167 ]
    mass: 87.620000
    reduced_to: 16
  - symbol: Sb # 17
    coordinates: [  0.261963285835015,  0.632035922471968,  0.928537439104824 ]
    mass: 121.760000
    reduced_to: 17
  - symbol: Sb # 18
    coordinates: [  0.738036714164984,  0.132035922471968,  0.571462560895176 ]
    mass: 121.760000
    reduced_to: 18
  - symbol: Sb # 19
    coordinates: [  0.738036714164984,  0.367964077528036,  0.071462560895176 ]
    mass: 121.760000
    reduced_to: 19
  - symbol: Sb # 20
    coordinates: [  0.261963285835015,  0.867964077528036,  0.428537439104824 ]
    mass: 121.760000
    reduced_to: 20
  - symbol: Sb # 21
    coordinates: [  0.531472873813161,  0.779705827250582,  0.840211009390879 ]
    mass: 121.760000
    reduced_to: 21
  - symbol: Sb # 22
    coordinates: [  0.468527126186839,  0.279705827250582,  0.659788990609121 ]
    mass: 121.760000
    reduced_to: 22
  - symbol: Sb # 23
    coordinates: [  0.468527126186839,  0.220294172749422,  0.159788990609120 ]
    mass: 121.760000
    reduced_to: 23
  - symbol: Sb # 24
    coordinates: [  0.531472873813160,  0.720294172749422,  0.340211009390879 ]
    mass: 121.760000
    reduced_to: 24
  - symbol: Sb # 25
    coordinates: [  0.419986629043315,  0.793000483594786,  0.657728065857914 ]
    mass: 121.760000
    reduced_to: 25
  - symbol: Sb # 26
    coordinates: [  0.580013370956685,  0.293000483594786,  0.842271934142086 ]
    mass: 121.760000
    reduced_to: 26
  - symbol: Sb # 27
    coordinates: [  0.580013370956685,  0.206999516405218,  0.342271934142086 ]
    mass: 121.760000
    reduced_to: 27
  - symbol: Sb # 28
    coordinates: [  0.419986629043314,  0.706999516405218,  0.157728065857913 ]
    mass: 121.760000
    reduced_to: 28
  - symbol: Sb # 29
    coordinates: [  0.085894227252571,  0.953527237189499,  0.651360408683431 ]
    mass: 121.760000
    reduced_to: 29
  - symbol: Sb # 30
    coordinates: [  0.914105772747428,  0.453527237189499,  0.848639591316569 ]
    mass: 121.760000
    reduced_to: 30
  - symbol: Sb # 31
    coordinates: [  0.914105772747428,  0.046472762810505,  0.348639591316568 ]
    mass: 121.760000
    reduced_to: 31
  - symbol: Sb # 32
    coordinates: [  0.085894227252572,  0.546472762810505,  0.151360408683431 ]
    mass: 121.760000
    reduced_to: 32
  - symbol: Sb # 33
    coordinates: [  0.969191975867090,  0.971681072723368,  0.832765111185644 ]
    mass: 121.760000
    reduced_to: 33
  - symbol: Sb # 34
    coordinates: [  0.030808024132910,  0.471681072723369,  0.667234888814355 ]
    mass: 121.760000
    reduced_to: 34
  - symbol: Sb # 35
    coordinates: [  0.030808024132910,  0.028318927276636,  0.167234888814355 ]
    mass: 121.760000
    reduced_to: 35
  - symbol: Sb # 36
    coordinates: [  0.969191975867090,  0.528318927276636,  0.332765111185644 ]
    mass: 121.760000
    reduced_to: 36
  - symbol: Sb # 37
    coordinates: [  0.762085562091927,  0.619196282766503,  0.581438402328589 ]
    mass: 121.760000
    reduced_to: 37
  - symbol: Sb # 38
    coordinates: [  0.237914437908072,  0.119196282766503,  0.918561597671411 ]
    mass: 121.760000
    reduced_to: 38
  - symbol: Sb # 39
    coordinates: [  0.237914437908073,  0.380803717233502,  0.418561597671411 ]
    mass: 121.760000
    reduced_to: 39
  - symbol: Sb # 40
    coordinates: [  0.762085562091927,  0.880803717233501,  0.081438402328589 ]
    mass: 121.760000
    reduced_to: 40

supercell:
  lattice:
  - [    38.768869198992746,    -0.000000000000000,    -0.000000000000000 ] # a
  - [     0.000000000000000,    13.541272749569718,    -0.018370522548980 ] # b
  - [     0.000000000000005,     0.022581625238103,    31.195214143992494 ] # c
  points:
  - symbol: Sr # 1
    coordinates: [  0.292816182590151,  0.124381771390646,  0.998530588968271 ]
    mass: 87.620000
    reduced_to: 1
  - symbol: Sr # 2
    coordinates: [  0.292816182590151,  0.624381771390646,  0.998530588968271 ]
    mass: 87.620000
    reduced_to: 1
  - symbol: Sr # 3
    coordinates: [  0.626149515923485,  0.124381771390646,  0.998530588968271 ]
    mass: 87.620000
    reduced_to: 1
  - symbol: Sr # 4
    coordinates: [  0.626149515923485,  0.624381771390646,  0.998530588968271 ]
    mass: 87.620000
    reduced_to: 1
  - symbol: Sr # 5
    coordinates: [  0.959482849256818,  0.124381771390646,  0.998530588968271 ]
    mass: 87.620000
    reduced_to: 1
  - symbol: Sr # 6
    coordinates: [  0.959482849256818,  0.624381771390646,  0.998530588968271 ]
    mass: 87.620000
    reduced_to: 1
  - symbol: Sr # 7
    coordinates: [  0.292816182590151,  0.124381771390646,  0.498530588968271 ]
    mass: 87.620000
    reduced_to: 1
  - symbol: Sr # 8
    coordinates: [  0.292816182590151,  0.624381771390646,  0.498530588968271 ]
    mass: 87.620000
    reduced_to: 1
  - symbol: Sr # 9
    coordinates: [  0.626149515923485,  0.124381771390646,  0.498530588968271 ]
    mass: 87.620000
    reduced_to: 1
  - symbol: Sr # 10
    coordinates: [  0.626149515923485,  0.624381771390646,  0.498530588968271 ]
    mass: 87.620000
    reduced_to: 1
  - symbol: Sr # 11
    coordinates: [  0.959482849256818,  0.124381771390646,  0.498530588968271 ]
    mass: 87.620000
    reduced_to: 1
  - symbol: Sr # 12
    coordinates: [  0.959482849256818,  0.624381771390646,  0.498530588968271 ]
    mass: 87.620000
    reduced_to: 1
  - symbol: Sr # 13
    coordinates: [  0.126149515923485,  0.375618228609354,  0.751469411031730 ]
    mass: 87.620000
    reduced_to: 13
  - symbol: Sr # 14
    coordinates: [  0.126149515923485,  0.875618228609354,  0.751469411031730 ]
    mass: 87.620000
    reduced_to: 13
  - symbol: Sr # 15
    coordinates: [  0.459482849256818,  0.375618228609354,  0.751469411031730 ]
    mass: 87.620000
    reduced_to: 13
  - symbol: Sr # 16
    coordinates: [  0.459482849256818,  0.875618228609354,  0.751469411031730 ]
    mass: 87.620000
    reduced_to: 13
  - symbol: Sr # 17
    coordinates: [  0.792816182590151,  0.375618228609354,  0.751469411031730 ]
    mass: 87.620000
    reduced_to: 13
  - symbol: Sr # 18
    coordinates: [  0.792816182590151,  0.875618228609354,  0.751469411031730 ]
    mass: 87.620000
    reduced_to: 13
  - symbol: Sr # 19
    coordinates: [  0.126149515923485,  0.375618228609354,  0.251469411031730 ]
    mass: 87.620000
    reduced_to: 13
  - symbol: Sr # 20
    coordinates: [  0.126149515923485,  0.875618228609354,  0.251469411031730 ]
    mass: 87.620000
    reduced_to: 13
  - symbol: Sr # 21
    coordinates: [  0.459482849256818,  0.375618228609354,  0.251469411031730 ]
    mass: 87.620000
    reduced_to: 13
  - symbol: Sr # 22
    coordinates: [  0.459482849256818,  0.875618228609354,  0.251469411031730 ]
    mass: 87.620000
    reduced_to: 13
  - symbol: Sr # 23
    coordinates: [  0.792816182590151,  0.375618228609354,  0.251469411031730 ]
    mass: 87.620000
    reduced_to: 13
  - symbol: Sr # 24
    coordinates: [  0.792816182590151,  0.875618228609354,  0.251469411031730 ]
    mass: 87.620000
    reduced_to: 13
  - symbol: Sr # 25
    coordinates: [  0.040517150743183,  0.375618228609354,  0.501469411031730 ]
    mass: 87.620000
    reduced_to: 25
  - symbol: Sr # 26
    coordinates: [  0.040517150743183,  0.875618228609354,  0.501469411031730 ]
    mass: 87.620000
    reduced_to: 25
  - symbol: Sr # 27
    coordinates: [  0.373850484076517,  0.375618228609354,  0.501469411031730 ]
    mass: 87.620000
    reduced_to: 25
  - symbol: Sr # 28
    coordinates: [  0.373850484076517,  0.875618228609354,  0.501469411031730 ]
    mass: 87.620000
    reduced_to: 25
  - symbol: Sr # 29
    coordinates: [  0.707183817409850,  0.375618228609354,  0.501469411031730 ]
    mass: 87.620000
    reduced_to: 25
  - symbol: Sr # 30
    coordinates: [  0.707183817409850,  0.875618228609354,  0.501469411031730 ]
    mass: 87.620000
    reduced_to: 25
  - symbol: Sr # 31
    coordinates: [  0.040517150743183,  0.375618228609354,  0.001469411031730 ]
    mass: 87.620000
    reduced_to: 25
  - symbol: Sr # 32
    coordinates: [  0.040517150743183,  0.875618228609354,  0.001469411031730 ]
    mass: 87.620000
    reduced_to: 25
  - symbol: Sr # 33
    coordinates: [  0.373850484076517,  0.375618228609354,  0.001469411031730 ]
    mass: 87.620000
    reduced_to: 25
  - symbol: Sr # 34
    coordinates: [  0.373850484076517,  0.875618228609354,  0.001469411031730 ]
    mass: 87.620000
    reduced_to: 25
  - symbol: Sr # 35
    coordinates: [  0.707183817409850,  0.375618228609354,  0.001469411031730 ]
    mass: 87.620000
    reduced_to: 25
  - symbol: Sr # 36
    coordinates: [  0.707183817409850,  0.875618228609354,  0.001469411031730 ]
    mass: 87.620000
    reduced_to: 25
  - symbol: Sr # 37
    coordinates: [  0.207183817409850,  0.124381771390646,  0.748530588968271 ]
    mass: 87.620000
    reduced_to: 37
  - symbol: Sr # 38
    coordinates: [  0.207183817409850,  0.624381771390646,  0.748530588968271 ]
    mass: 87.620000
    reduced_to: 37
  - symbol: Sr # 39
    coordinates: [  0.540517150743183,  0.124381771390646,  0.748530588968271 ]
    mass: 87.620000
    reduced_to: 37
  - symbol: Sr # 40
    coordinates: [  0.540517150743183,  0.624381771390646,  0.748530588968271 ]
    mass: 87.620000
    reduced_to: 37
  - symbol: Sr # 41
    coordinates: [  0.873850484076517,  0.124381771390646,  0.748530588968271 ]
    mass: 87.620000
    reduced_to: 37
  - symbol: Sr # 42
    coordinates: [  0.873850484076517,  0.624381771390646,  0.748530588968271 ]
    mass: 87.620000
    reduced_to: 37
  - symbol: Sr # 43
    coordinates: [  0.207183817409850,  0.124381771390646,  0.248530588968271 ]
    mass: 87.620000
    reduced_to: 37
  - symbol: Sr # 44
    coordinates: [  0.207183817409850,  0.624381771390646,  0.248530588968271 ]
    mass: 87.620000
    reduced_to: 37
  - symbol: Sr # 45
    coordinates: [  0.540517150743183,  0.124381771390646,  0.248530588968271 ]
    mass: 87.620000
    reduced_to: 37
  - symbol: Sr # 46
    coordinates: [  0.540517150743183,  0.624381771390646,  0.248530588968271 ]
    mass: 87.620000
    reduced_to: 37
  - symbol: Sr # 47
    coordinates: [  0.873850484076517,  0.124381771390646,  0.248530588968271 ]
    mass: 87.620000
    reduced_to: 37
  - symbol: Sr # 48
    coordinates: [  0.873850484076517,  0.624381771390646,  0.248530588968271 ]
    mass: 87.620000
    reduced_to: 37
  - symbol: Sr # 49
    coordinates: [  0.290822525970880,  0.374879001299375,  0.748236308850161 ]
    mass: 87.620000
    reduced_to: 49
  - symbol: Sr # 50
    coordinates: [  0.290822525970880,  0.874879001299375,  0.748236308850161 ]
    mass: 87.620000
    reduced_to: 49
  - symbol: Sr # 51
    coordinates: [  0.624155859304213,  0.374879001299375,  0.748236308850161 ]
    mass: 87.620000
    reduced_to: 49
  - symbol: Sr # 52
    coordinates: [  0.624155859304213,  0.874879001299375,  0.748236308850161 ]
    mass: 87.620000
    reduced_to: 49
  - symbol: Sr # 53
    coordinates: [  0.957489192637546,  0.374879001299375,  0.748236308850161 ]
    mass: 87.620000
    reduced_to: 49
  - symbol: Sr # 54
    coordinates: [  0.957489192637546,  0.874879001299375,  0.748236308850161 ]
    mass: 87.620000
    reduced_to: 49
  - symbol: Sr # 55
    coordinates: [  0.290822525970880,  0.374879001299375,  0.248236308850161 ]
    mass: 87.620000
    reduced_to: 49
  - symbol: Sr # 56
    coordinates: [  0.290822525970880,  0.874879001299375,  0.248236308850161 ]
    mass: 87.620000
    reduced_to: 49
  - symbol: Sr # 57
    coordinates: [  0.624155859304213,  0.374879001299375,  0.248236308850161 ]
    mass: 87.620000
    reduced_to: 49
  - symbol: Sr # 58
    coordinates: [  0.624155859304213,  0.874879001299375,  0.248236308850161 ]
    mass: 87.620000
    reduced_to: 49
  - symbol: Sr # 59
    coordinates: [  0.957489192637546,  0.374879001299375,  0.248236308850161 ]
    mass: 87.620000
    reduced_to: 49
  - symbol: Sr # 60
    coordinates: [  0.957489192637546,  0.874879001299375,  0.248236308850161 ]
    mass: 87.620000
    reduced_to: 49
  - symbol: Sr # 61
    coordinates: [  0.124155859304213,  0.125120998700625,  0.501763691149839 ]
    mass: 87.620000
    reduced_to: 61
  - symbol: Sr # 62
    coordinates: [  0.124155859304213,  0.625120998700625,  0.501763691149839 ]
    mass: 87.620000
    reduced_to: 61
  - symbol: Sr # 63
    coordinates: [  0.457489192637546,  0.125120998700625,  0.501763691149839 ]
    mass: 87.620000
    reduced_to: 61
  - symbol: Sr # 64
    coordinates: [  0.457489192637546,  0.625120998700625,  0.501763691149839 ]
    mass: 87.620000
    reduced_to: 61
  - symbol: Sr # 65
    coordinates: [  0.790822525970879,  0.125120998700625,  0.501763691149839 ]
    mass: 87.620000
    reduced_to: 61
  - symbol: Sr # 66
    coordinates: [  0.790822525970879,  0.625120998700625,  0.501763691149839 ]
    mass: 87.620000
    reduced_to: 61
  - symbol: Sr # 67
    coordinates: [  0.124155859304213,  0.125120998700625,  0.001763691149839 ]
    mass: 87.620000
    reduced_to: 61
  - symbol: Sr # 68
    coordinates: [  0.124155859304213,  0.625120998700625,  0.001763691149839 ]
    mass: 87.620000
    reduced_to: 61
  - symbol: Sr # 69
    coordinates: [  0.457489192637546,  0.125120998700625,  0.001763691149839 ]
    mass: 87.620000
    reduced_to: 61
  - symbol: Sr # 70
    coordinates: [  0.457489192637546,  0.625120998700625,  0.001763691149839 ]
    mass: 87.620000
    reduced_to: 61
  - symbol: Sr # 71
    coordinates: [  0.790822525970879,  0.125120998700625,  0.001763691149839 ]
    mass: 87.620000
    reduced_to: 61
  - symbol: Sr # 72
    coordinates: [  0.790822525970879,  0.625120998700625,  0.001763691149839 ]
    mass: 87.620000
    reduced_to: 61
  - symbol: Sr # 73
    coordinates: [  0.042510807362455,  0.125120998700625,  0.751763691149839 ]
    mass: 87.620000
    reduced_to: 73
  - symbol: Sr # 74
    coordinates: [  0.042510807362455,  0.625120998700625,  0.751763691149839 ]
    mass: 87.620000
    reduced_to: 73
  - symbol: Sr # 75
    coordinates: [  0.375844140695789,  0.125120998700625,  0.751763691149839 ]
    mass: 87.620000
    reduced_to: 73
  - symbol: Sr # 76
    coordinates: [  0.375844140695789,  0.625120998700625,  0.751763691149839 ]
    mass: 87.620000
    reduced_to: 73
  - symbol: Sr # 77
    coordinates: [  0.709177474029122,  0.125120998700625,  0.751763691149839 ]
    mass: 87.620000
    reduced_to: 73
  - symbol: Sr # 78
    coordinates: [  0.709177474029122,  0.625120998700625,  0.751763691149839 ]
    mass: 87.620000
    reduced_to: 73
  - symbol: Sr # 79
    coordinates: [  0.042510807362455,  0.125120998700625,  0.251763691149839 ]
    mass: 87.620000
    reduced_to: 73
  - symbol: Sr # 80
    coordinates: [  0.042510807362455,  0.625120998700625,  0.251763691149839 ]
    mass: 87.620000
    reduced_to: 73
  - symbol: Sr # 81
    coordinates: [  0.375844140695789,  0.125120998700625,  0.251763691149839 ]
    mass: 87.620000
    reduced_to: 73
  - symbol: Sr # 82
    coordinates: [  0.375844140695789,  0.625120998700625,  0.251763691149839 ]
    mass: 87.620000
    reduced_to: 73
  - symbol: Sr # 83
    coordinates: [  0.709177474029122,  0.125120998700625,  0.251763691149839 ]
    mass: 87.620000
    reduced_to: 73
  - symbol: Sr # 84
    coordinates: [  0.709177474029122,  0.625120998700625,  0.251763691149839 ]
    mass: 87.620000
    reduced_to: 73
  - symbol: Sr # 85
    coordinates: [  0.209177474029122,  0.374879001299375,  0.998236308850161 ]
    mass: 87.620000
    reduced_to: 85
  - symbol: Sr # 86
    coordinates: [  0.209177474029122,  0.874879001299375,  0.998236308850161 ]
    mass: 87.620000
    reduced_to: 85
  - symbol: Sr # 87
    coordinates: [  0.542510807362455,  0.374879001299375,  0.998236308850161 ]
    mass: 87.620000
    reduced_to: 85
  - symbol: Sr # 88
    coordinates: [  0.542510807362455,  0.874879001299375,  0.998236308850161 ]
    mass: 87.620000
    reduced_to: 85
  - symbol: Sr # 89
    coordinates: [  0.875844140695789,  0.374879001299375,  0.998236308850161 ]
    mass: 87.620000
    reduced_to: 85
  - symbol: Sr # 90
    coordinates: [  0.875844140695789,  0.874879001299375,  0.998236308850161 ]
    mass: 87.620000
    reduced_to: 85
  - symbol: Sr # 91
    coordinates: [  0.209177474029122,  0.374879001299375,  0.498236308850161 ]
    mass: 87.620000
    reduced_to: 85
  - symbol: Sr # 92
    coordinates: [  0.209177474029122,  0.874879001299375,  0.498236308850161 ]
    mass: 87.620000
    reduced_to: 85
  - symbol: Sr # 93
    coordinates: [  0.542510807362455,  0.374879001299375,  0.498236308850161 ]
    mass: 87.620000
    reduced_to: 85
  - symbol: Sr # 94
    coordinates: [  0.542510807362455,  0.874879001299375,  0.498236308850161 ]
    mass: 87.620000
    reduced_to: 85
  - symbol: Sr # 95
    coordinates: [  0.875844140695789,  0.374879001299375,  0.498236308850161 ]
    mass: 87.620000
    reduced_to: 85
  - symbol: Sr # 96
    coordinates: [  0.875844140695789,  0.874879001299375,  0.498236308850161 ]
    mass: 87.620000
    reduced_to: 85
  - symbol: Sr # 97
    coordinates: [  0.240653595083729,  0.496830842767462,  0.620795597682238 ]
    mass: 87.620000
    reduced_to: 97
  - symbol: Sr # 98
    coordinates: [  0.240653595083729,  0.996830842767462,  0.620795597682238 ]
    mass: 87.620000
    reduced_to: 97
  - symbol: Sr # 99
    coordinates: [  0.573986928417062,  0.496830842767462,  0.620795597682238 ]
    mass: 87.620000
    reduced_to: 97
  - symbol: Sr # 100
    coordinates: [  0.573986928417062,  0.996830842767462,  0.620795597682238 ]
    mass: 87.620000
    reduced_to: 97
  - symbol: Sr # 101
    coordinates: [  0.907320261750395,  0.496830842767462,  0.620795597682238 ]
    mass: 87.620000
    reduced_to: 97
  - symbol: Sr # 102
    coordinates: [  0.907320261750395,  0.996830842767462,  0.620795597682238 ]
    mass: 87.620000
    reduced_to: 97
  - symbol: Sr # 103
    coordinates: [  0.240653595083729,  0.496830842767462,  0.120795597682238 ]
    mass: 87.620000
    reduced_to: 97
  - symbol: Sr # 104
    coordinates: [  0.240653595083729,  0.996830842767462,  0.120795597682238 ]
    mass: 87.620000
    reduced_to: 97
  - symbol: Sr # 105
    coordinates: [  0.573986928417062,  0.496830842767462,  0.120795597682238 ]
    mass: 87.620000
    reduced_to: 97
  - symbol: Sr # 106
    coordinates: [  0.573986928417062,  0.996830842767462,  0.120795597682238 ]
    mass: 87.620000
    reduced_to: 97
  - symbol: Sr # 107
    coordinates: [  0.907320261750395,  0.496830842767462,  0.120795597682238 ]
    mass: 87.620000
    reduced_to: 97
  - symbol: Sr # 108
    coordinates: [  0.907320261750395,  0.996830842767462,  0.120795597682238 ]
    mass: 87.620000
    reduced_to: 97
  - symbol: Sr # 109
    coordinates: [  0.073986928417062,  0.003169157232538,  0.629204402317762 ]
    mass: 87.620000
    reduced_to: 109
  - symbol: Sr # 110
    coordinates: [  0.073986928417062,  0.503169157232538,  0.629204402317762 ]
    mass: 87.620000
    reduced_to: 109
  - symbol: Sr # 111
    coordinates: [  0.407320261750395,  0.003169157232538,  0.629204402317762 ]
    mass: 87.620000
    reduced_to: 109
  - symbol: Sr # 112
    coordinates: [  0.407320261750395,  0.503169157232538,  0.629204402317762 ]
    mass: 87.620000
    reduced_to: 109
  - symbol: Sr # 113
    coordinates: [  0.740653595083729,  0.003169157232538,  0.629204402317762 ]
    mass: 87.620000
    reduced_to: 109
  - symbol: Sr # 114
    coordinates: [  0.740653595083729,  0.503169157232538,  0.629204402317762 ]
    mass: 87.620000
    reduced_to: 109
  - symbol: Sr # 115
    coordinates: [  0.073986928417062,  0.003169157232538,  0.129204402317762 ]
    mass: 87.620000
    reduced_to: 109
  - symbol: Sr # 116
    coordinates: [  0.073986928417062,  0.503169157232538,  0.129204402317762 ]
    mass: 87.620000
    reduced_to: 109
  - symbol: Sr # 117
    coordinates: [  0.407320261750395,  0.003169157232538,  0.129204402317762 ]
    mass: 87.620000
    reduced_to: 109
  - symbol: Sr # 118
    coordinates: [  0.407320261750395,  0.503169157232538,  0.129204402317762 ]
    mass: 87.620000
    reduced_to: 109
  - symbol: Sr # 119
    coordinates: [  0.740653595083729,  0.003169157232538,  0.129204402317762 ]
    mass: 87.620000
    reduced_to: 109
  - symbol: Sr # 120
    coordinates: [  0.740653595083729,  0.503169157232538,  0.129204402317762 ]
    mass: 87.620000
    reduced_to: 109
  - symbol: Sr # 121
    coordinates: [  0.092679738249606,  0.003169157232538,  0.879204402317762 ]
    mass: 87.620000
    reduced_to: 121
  - symbol: Sr # 122
    coordinates: [  0.092679738249606,  0.503169157232538,  0.879204402317762 ]
    mass: 87.620000
    reduced_to: 121
  - symbol: Sr # 123
    coordinates: [  0.426013071582939,  0.003169157232538,  0.879204402317762 ]
    mass: 87.620000
    reduced_to: 121
  - symbol: Sr # 124
    coordinates: [  0.426013071582939,  0.503169157232538,  0.879204402317762 ]
    mass: 87.620000
    reduced_to: 121
  - symbol: Sr # 125
    coordinates: [  0.759346404916273,  0.003169157232538,  0.879204402317762 ]
    mass: 87.620000
    reduced_to: 121
  - symbol: Sr # 126
    coordinates: [  0.759346404916273,  0.503169157232538,  0.879204402317762 ]
    mass: 87.620000
    reduced_to: 121
  - symbol: Sr # 127
    coordinates: [  0.092679738249606,  0.003169157232538,  0.379204402317762 ]
    mass: 87.620000
    reduced_to: 121
  - symbol: Sr # 128
    coordinates: [  0.092679738249606,  0.503169157232538,  0.379204402317762 ]
    mass: 87.620000
    reduced_to: 121
  - symbol: Sr # 129
    coordinates: [  0.426013071582939,  0.003169157232538,  0.379204402317762 ]
    mass: 87.620000
    reduced_to: 121
  - symbol: Sr # 130