phonopy:
  version: "2.21.0"
  frequency_unit_conversion_factor: 15.633302
  symmetry_tolerance: 1.00000e-04

space_group:
  type: "P4/mbm"
  number: 127
  Hall_symbol: "-P 4 2ab"

primitive_matrix:
- [  1.000000000000000,  0.000000000000000,  0.000000000000000 ]
- [  0.000000000000000,  1.000000000000000,  0.000000000000000 ]
- [ -0.000000000000000, -0.000000000000000,  1.000000000000000 ]

supercell_matrix:
- [   3,   0,   0 ]
- [   0,   3,   0 ]
- [   0,   0,   6 ]

primitive_cell:
  lattice:
  - [     7.908066998399033,     0.000000000000000,     0.000000000000001 ] # a
  - [    -0.000000000000001,     7.908066998399033,     0.000000000000001 ] # b
  - [     0.000000000000000,     0.000000000000000,     3.747857499729268 ] # c
  points:
  - symbol: K  # 1
    coordinates: [  0.500000000000000,  0.500000000000000,  0.000000000000000 ]
    mass: 39.098300
  - symbol: K  # 2
    coordinates: [  0.000000000000000,  0.000000000000000,  0.000000000000000 ]
    mass: 39.098300
  - symbol: Au # 3
    coordinates: [  0.500000000000000,  0.000000000000000,  0.000000000000000 ]
    mass: 196.966569
  - symbol: Au # 4
    coordinates: [  0.000000000000000,  0.500000000000000,  0.000000000000000 ]
    mass: 196.966569
  - symbol: Se # 5
    coordinates: [  0.149582082249012,  0.350417917750988,  0.500000000000000 ]
    mass: 78.960000
  - symbol: Se # 6
    coordinates: [  0.350417917750988,  0.850417917750988,  0.500000000000000 ]
    mass: 78.960000
  - symbol: Se # 7
    coordinates: [  0.649582082249012,  0.149582082249012,  0.500000000000000 ]
    mass: 78.960000
  - symbol: Se # 8
    coordinates: [  0.850417917750988,  0.649582082249012,  0.500000000000000 ]
    mass: 78.960000
  reciprocal_lattice: # without 2pi
  - [     0.126453152230810,     0.000000000000000,     0.000000000000000 ] # a*
  - [     0.000000000000000,     0.126453152230810,     0.000000000000000 ] # b*
  - [    -0.000000000000000,    -0.000000000000000,     0.266819109337064 ] # c*

unit_cell:
  lattice:
  - [     7.908066998399031,     0.000000000000000,     0.000000000000001 ] # a
  - [    -0.000000000000001,     7.908066998399031,     0.000000000000001 ] # b
  - [     0.000000000000000,     0.000000000000000,     3.747857499729268 ] # c
  points:
  - symbol: K  # 1
    coordinates: [  0.500000000000000,  0.500000000000000,  0.000000000000000 ]
    mass: 39.098300
    reduced_to: 1
  - symbol: K  # 2
    coordinates: [  0.000000000000000,  0.000000000000000,  0.000000000000000 ]
    mass: 39.098300
    reduced_to: 2
  - symbol: Au # 3
    coordinates: [  0.500000000000000,  0.000000000000000,  0.000000000000000 ]
    mass: 196.966569
    reduced_to: 3
  - symbol: Au # 4
    coordinates: [  0.000000000000000,  0.500000000000000,  0.000000000000000 ]
    mass: 196.966569
    reduced_to: 4
  - symbol: Se # 5
    coordinates: [  0.149582082249012,  0.350417917750988,  0.500000000000000 ]
    mass: 78.960000
    reduced_to: 5
  - symbol: Se # 6
    coordinates: [  0.350417917750988,  0.850417917750988,  0.500000000000000 ]
    mass: 78.960000
    reduced_to: 6
  - symbol: Se # 7
    coordinates: [  0.649582082249012,  0.149582082249012,  0.500000000000000 ]
    mass: 78.960000
    reduced_to: 7
  - symbol: Se # 8
    coordinates: [  0.850417917750988,  0.649582082249012,  0.500000000000000 ]
    mass: 78.960000
    reduced_to: 8

supercell:
  lattice:
  - [    23.724200995197094,     0.000000000000000,     0.000000000000002 ] # a
  - [    -0.000000000000002,    23.724200995197094,     0.000000000000002 ] # b
  - [     0.000000000000000,     0.000000000000000,    22.487144998375609 ] # c
  points:
  - symbol: K  # 1
    coordinates: [  0.166666666666667,  0.166666666666667,  0.000000000000000 ]
    mass: 39.098300
    reduced_to: 1
  - symbol: K  # 2
    coordinates: [  0.500000000000000,  0.166666666666667,  0.000000000000000 ]
    mass: 39.098300
    reduced_to: 1
  - symbol: K  # 3
    coordinates: [  0.833333333333333,  0.166666666666667,  0.000000000000000 ]
    mass: 39.098300
    reduced_to: 1
  - symbol: K  # 4
    coordinates: [  0.166666666666667,  0.500000000000000,  0.000000000000000 ]
    mass: 39.098300
    reduced_to: 1
  - symbol: K  # 5
    coordinates: [  0.500000000000000,  0.500000000000000,  0.000000000000000 ]
    mass: 39.098300
    reduced_to: 1
  - symbol: K  # 6
    coordinates: [  0.833333333333333,  0.500000000000000,  0.000000000000000 ]
    mass: 39.098300
    reduced_to: 1
  - symbol: K  # 7
    coordinates: [  0.166666666666667,  0.833333333333333,  0.000000000000000 ]
    mass: 39.098300
    reduced_to: 1
  - symbol: K  # 8
    coordinates: [  0.500000000000000,  0.833333333333333,  0.000000000000000 ]
    mass: 39.098300
    reduced_to: 1
  - symbol: K  # 9
    coordinates: [  0.833333333333333,  0.833333333333333,  0.000000000000000 ]
    mass: 39.098300
    reduced_to: 1
  - symbol: K  # 10
    coordinates: [  0.166666666666667,  0.166666666666667,  0.166666666666667 ]
    mass: 39.098300
    reduced_to: 1
  - symbol: K  # 11
    coordinates: [  0.500000000000000,  0.166666666666667,  0.166666666666667 ]
    mass: 39.098300
    reduced_to: 1
  - symbol: K  # 12
    coordinates: [  0.833333333333333,  0.166666666666667,  0.166666666666667 ]
    mass: 39.098300
    reduced_to: 1
  - symbol: K  # 13
    coordinates: [  0.166666666666667,  0.500000000000000,  0.166666666666667 ]
    mass: 39.098300
    reduced_to: 1
  - symbol: K  # 14
    coordinates: [  0.500000000000000,  0.500000000000000,  0.166666666666667 ]
    mass: 39.098300
    reduced_to: 1
  - symbol: K  # 15
    coordinates: [  0.833333333333333,  0.500000000000000,  0.166666666666667 ]
    mass: 39.098300
    reduced_to: 1
  - symbol: K  # 16
    coordinates: [  0.166666666666667,  0.833333333333333,  0.166666666666667 ]
    mass: 39.098300
    reduced_to: 1
  - symbol: K  # 17
    coordinates: [  0.500000000000000,  0.833333333333333,  0.166666666666667 ]
    mass: 39.098300
    reduced_to: 1
  - symbol: K  # 18
    coordinates: [  0.833333333333333,  0.833333333333333,  0.166666666666667 ]
    mass: 39.098300
    reduced_to: 1
  - symbol: K  # 19
    coordinates: [  0.166666666666667,  0.166666666666667,  0.333333333333333 ]
    mass: 39.098300
    reduced_to: 1
  - symbol: K  # 20
    coordinates: [  0.500000000000000,  0.166666666666667,  0.333333333333333 ]
    mass: 39.098300
    reduced_to: 1
  - symbol: K  # 21
    coordinates: [  0.833333333333333,  0.166666666666667,  0.333333333333333 ]
    mass: 39.098300
    reduced_to: 1
  - symbol: K  # 22
    coordinates: [  0.166666666666667,  0.500000000000000,  0.333333333333333 ]
    mass: 39.098300
    reduced_to: 1
  - symbol: K  # 23
    coordinates: [  0.500000000000000,  0.500000000000000,  0.333333333333333 ]
    mass: 39.098300
    reduced_to: 1
  - symbol: K  # 24
    coordinates: [  0.833333333333333,  0.500000000000000,  0.333333333333333 ]
    mass: 39.098300
    reduced_to: 1
  - symbol: K  # 25
    coordinates: [  0.166666666666667,  0.833333333333333,  0.333333333333333 ]
    mass: 39.098300
    reduced_to: 1
  - symbol: K  # 26
    coordinates: [  0.500000000000000,  0.833333333333333,  0.333333333333333 ]
    mass: 39.098300
    reduced_to: 1
  - symbol: K  # 27
    coordinates: [  0.833333333333333,  0.833333333333333,  0.333333333333333 ]
    mass: 39.098300
    reduced_to: 1
  - symbol: K  # 28
    coordinates: [  0.166666666666667,  0.166666666666667,  0.500000000000000 ]
    mass: 39.098300
    reduced_to: 1
  - symbol: K  # 29
    coordinates: [  0.500000000000000,  0.166666666666667,  0.500000000000000 ]
    mass: 39.098300
    reduced_to: 1
  - symbol: K  # 30
    coordinates: [  0.833333333333333,  0.166666666666667,  0.500000000000000 ]
    mass: 39.098300
    reduced_to: 1
  - symbol: K  # 31
    coordinates: [  0.166666666666667,  0.500000000000000,  0.500000000000000 ]
    mass: 39.098300
    reduced_to: 1
  - symbol: K  # 32
    coordinates: [  0.500000000000000,  0.500000000000000,  0.500000000000000 ]
    mass: 39.098300
    reduced_to: 1
  - symbol: K  # 33
    coordinates: [  0.833333333333333,  0.500000000000000,  0.500000000000000 ]
    mass: 39.098300
    reduced_to: 1
  - symbol: K  # 34
    coordinates: [  0.166666666666667,  0.833333333333333,  0.500000000000000 ]
    mass: 39.098300
    reduced_to: 1
  - symbol: K  # 35
    coordinates: [  0.500000000000000,  0.833333333333333,  0.500000000000000 ]
    mass: 39.098300
    reduced_to: 1
  - symbol: K  # 36
    coordinates: [  0.833333333333333,  0.833333333333333,  0.500000000000000 ]
    mass: 39.098300
    reduced_to: 1
  - symbol: K  # 37
    coordinates: [  0.166666666666667,  0.166666666666667,  0.666666666666667 ]
    mass: 39.098300
    reduced_to: 1
  - symbol: K  # 38
    coordinates: [  0.500000000000000,  0.166666666666667,  0.666666666666667 ]
    mass: 39.098300
    reduced_to: 1
  - symbol: K  # 39
    coordinates: [  0.833333333333333,  0.166666666666667,  0.666666666666667 ]
    mass: 39.098300
    reduced_to: 1
  - symbol: K  # 40
    coordinates: [  0.166666666666667,  0.500000000000000,  0.666666666666667 ]
    mass: 39.098300
    reduced_to: 1
  - symbol: K  # 41
    coordinates: [  0.500000000000000,  0.500000000000000,  0.666666666666667 ]
    mass: 39.098300
    reduced_to: 1
  - symbol: K  # 42
    coordinates: [  0.833333333333333,  0.500000000000000,  0.666666666666667 ]
    mass: 39.098300
    reduced_to: 1
  - symbol: K  # 43
    coordinates: [  0.166666666666667,  0.833333333333333,  0.666666666666667 ]
    mass: 39.098300
    reduced_to: 1
  - symbol: K  # 44
    coordinates: [  0.500000000000000,  0.833333333333333,  0.666666666666667 ]
    mass: 39.098300
    reduced_to: 1
  - symbol: K  # 45
    coordinates: [  0.833333333333333,  0.833333333333333,  0.666666666666667 ]
    mass: 39.098300
    reduced_to: 1
  - symbol: K  # 46
    coordinates: [  0.166666666666667,  0.166666666666667,  0.833333333333333 ]
    mass: 39.098300
    reduced_to: 1
  - symbol: K  # 47
    coordinates: [  0.500000000000000,  0.166666666666667,  0.833333333333333 ]
    mass: 39.098300
    reduced_to: 1
  - symbol: K  # 48
    coordinates: [  0.833333333333333,  0.166666666666667,  0.833333333333333 ]
    mass: 39.098300
    reduced_to: 1
  - symbol: K  # 49
    coordinates: [  0.166666666666667,  0.500000000000000,  0.833333333333333 ]
    mass: 39.098300
    reduced_to: 1
  - symbol: K  # 50
    coordinates: [  0.500000000000000,  0.500000000000000,  0.833333333333333 ]
    mass: 39.098300
    reduced_to: 1
  - symbol: K  # 51
    coordinates: [  0.833333333333333,  0.500000000000000,  0.833333333333333 ]
    mass: 39.098300
    reduced_to: 1
  - symbol: K  # 52
    coordinates: [  0.166666666666667,  0.833333333333333,  0.833333333333333 ]
    mass: 39.098300
    reduced_to: 1
  - symbol: K  # 53
    coordinates: [  0.500000000000000,  0.833333333333333,  0.833333333333333 ]
    mass: 39.098300
    reduced_to: 1
  - symbol: K  # 54
    coordinates: [  0.833333333333333,  0.833333333333333,  0.833333333333333 ]
    mass: 39.098300
    reduced_to: 1
  - symbol: K  # 55
    coordinates: [  0.000000000000000,  0.000000000000000,  0.000000000000000 ]
    mass: 39.098300
    reduced_to: 55
  - symbol: K  # 56
    coordinates: [  0.333333333333333,  0.000000000000000,  0.000000000000000 ]
    mass: 39.098300
    reduced_to: 55
  - symbol: K  # 57
    coordinates: [  0.666666666666667,  0.000000000000000,  0.000000000000000 ]
    mass: 39.098300
    reduced_to: 55
  - symbol: K  # 58
    coordinates: [  0.000000000000000,  0.333333333333333,  0.000000000000000 ]
    mass: 39.098300
    reduced_to: 55
  - symbol: K  # 59
    coordinates: [  0.333333333333333,  0.333333333333333,  0.000000000000000 ]
    mass: 39.098300
    reduced_to: 55
  - symbol: K  # 60
    coordinates: [  0.666666666666667,  0.333333333333333,  0.000000000000000 ]
    mass: 39.098300
    reduced_to: 55
  - symbol: K  # 61
    coordinates: [  0.000000000000000,  0.666666666666667,  0.000000000000000 ]
    mass: 39.098300
    reduced_to: 55
  - symbol: K  # 62
    coordinates: [  0.333333333333333,  0.666666666666667,  0.000000000000000 ]
    mass: 39.098300
    reduced_to: 55
  - symbol: K  # 63
    coordinates: [  0.666666666666667,  0.666666666666667,  0.000000000000000 ]
    mass: 39.098300
    reduced_to: 55
  - symbol: K  # 64
    coordinates: [  0.000000000000000,  0.000000000000000,  0.166666666666667 ]
    mass: 39.098300
    reduced_to: 55
  - symbol: K  # 65
    coordinates: [  0.333333333333333,  0.000000000000000,  0.166666666666667 ]
    mass: 39.098300
    reduced_to: 55
  - symbol: K  # 66
    coordinates: [  0.666666666666667,  0.000000000000000,  0.166666666666667 ]
    mass: 39.098300
    reduced_to: 55
  - symbol: K  # 67
    coordinates: [  0.000000000000000,  0.333333333333333,  0.166666666666667 ]
    mass: 39.098300
    reduced_to: 55
  - symbol: K  # 68
    coordinates: [  0.333333333333333,  0.333333333333333,  0.166666666666667 ]
    mass: 39.098300
    reduced_to: 55
  - symbol: K  # 69
    coordinates: [  0.666666666666667,  0.333333333333333,  0.166666666666667 ]
    mass: 39.098300
    reduced_to: 55
  - symbol: K  # 70
    coordinates: [  0.000000000000000,  0.666666666666667,  0.166666666666667 ]
    mass: 39.098300
    reduced_to: 55
  - symbol: K  # 71
    coordinates: [  0.333333333333333,  0.666666666666667,  0.166666666666667 ]
    mass: 39.098300
    reduced_to: 55
  - symbol: K  # 72
    coordinates: [  0.666666666666667,  0.666666666666667,  0.166666666666667 ]
    mass: 39.098300
    reduced_to: 55
  - symbol: K  # 73
    coordinates: [  0.000000000000000,  0.000000000000000,  0.333333333333333 ]
    mass: 39.098300
    reduced_to: 55
  - symbol: K  # 74
    coordinates: [  0.333333333333333,  0.000000000000000,  0.333333333333333 ]
    mass: 39.098300
    reduced_to: 55
  - symbol: K  # 75
    coordinates: [  0.666666666666667,  0.000000000000000,  0.333333333333333 ]
    mass: 39.098300
    reduced_to: 55
  - symbol: K  # 76
    coordinates: [  0.000000000000000,  0.333333333333333,  0.333333333333333 ]
    mass: 39.098300
    reduced_to: 55
  - symbol: K  # 77
    coordinates: [  0.333333333333333,  0.333333333333333,  0.333333333333333 ]
    mass: 39.098300
    reduced_to: 55
  - symbol: K  # 78
    coordinates: [  0.666666666666667,  0.333333333333333,  0.333333333333333 ]
    mass: 39.098300
    reduced_to: 55
  - symbol: K  # 79
    coordinates: [  0.000000000000000,  0.666666666666667,  0.333333333333333 ]
    mass: 39.098300
    reduced_to: 55
  - symbol: K  # 80
    coordinates: [  0.333333333333333,  0.666666666666667,  0.333333333333333 ]
    mass: 39.098300
    reduced_to: 55
  - symbol: K  # 81
    coordinates: [  0.666666666666667,  0.666666666666667,  0.333333333333333 ]
    mass: 39.098300
    reduced_to: 55
  - symbol: K  # 82
    coordinates: [  0.000000000000000,  0.000000000000000,  0.500000000000000 ]
    mass: 39.098300
    reduced_to: 55
  - symbol: K  # 83
    coordinates: [  0.333333333333333,  0.000000000000000,  0.500000000000000 ]
    mass: 39.098300
    reduced_to: 55
  - symbol: K  # 84
    coordinates: [  0.666666666666667,  0.000000000000000,  0.500000000000000 ]
    mass: 39.098300
    reduced_to: 55
  - symbol: K  # 85
    coordinates: [  0.000000000000000,  0.333333333333333,  0.500000000000000 ]
    mass: 39.098300
    reduced_to: 55
  - symbol: K  # 86
    coordinates: [  0.333333333333333,  0.333333333333333,  0.500000000000000 ]
    mass: 39.098300
    reduced_to: 55
  - symbol: K  # 87
    coordinates: [  0.666666666666667,  0.333333333333333,  0.500000000000000 ]
    mass: 39.098300
    reduced_to: 55
  - symbol: K  # 88
    coordinates: [  0.000000000000000,  0.666666666666667,  0.500000000000000 ]
    mass: 39.098300
    reduced_to: 55
  - symbol: K  # 89
    coordinates: [  0.333333333333333,  0.666666666666667,  0.500000000000000 ]
    mass: 39.098300
    reduced_to: 55
  - symbol: K  # 90
    coordinates: [  0.666666666666667,  0.666666666666667,  0.500000000000000 ]
    mass: 39.098300
    reduced_to: 55
  - symbol: K  # 91
    coordinates: [  0.000000000000000,  0.000000000000000,  0.666666666666667 ]
    mass: 39.098300
    reduced_to: 55
  - symbol: K  # 92
    coordinates: [  0.333333333333333,  0.000000000000000,  0.666666666666667 ]
    mass: 39.098300
    reduced_to: 55
  - symbol: K  # 93
    coordinates: [  0.666666666666667,  0.000000000000000,  0.666666666666667 ]
    mass: 39.098300
    reduced_to: 55
  - symbol: K  # 94
    coordinates: [  0.000000000000000,  0.333333333333333,  0.666666666666667 ]
    mass: 39.098300
    reduced_to: 55
  - symbol: K  # 95
    coordinates: [  0.333333333333333,  0.333333333333333,  0.666666666666667 ]
    mass: 39.098300
    reduced_to: 55
  - symbol: K  # 96
    coordinates: [  0.666666666666667,  0.333333333333333,  0.666666666666667 ]
    mass: 39.098300
    reduced_to: 55
  - symbol: K  # 97
    coordinates: [  0.000000000000000,  0.666666666666667,  0.666666666666667 ]
    mass: 39.098300
    reduced_to: 55
  - symbol: K  # 98
    coordinates: [  0.333333333333333,  0.666666666666667,  0.666666666666667 ]
    mass: 39.098300
    reduced_to: 55
  - symbol: K  # 99
    coordinates: [  0.666666666666667,  0.666666666666667,  0.666666666666667 ]
    mass: 39.098300
    reduced_to: 55
  - symbol: K  # 100
    coordinates: [  0.000000000000000,  0.000000000000000,  0.833333333333333 ]
    mass: 39.098300
    reduced_to: 55
  - symbol: K  # 101
    coordinates: [  0.333333333333333,  0.000000000000000,  0.833333333333333 ]
    mass: 39.098300
    reduced_to: 55
  - symbol: K  # 102
    coordinates: [  0.666666666666667,  0.000000000000000,  0.833333333333333 ]
    mass: 39.098300
    reduced_to: 55
  - symbol: K  # 103
    coordinates: [  0.000000000000000,  0.333333333333333,  0.833333333333333 ]
    mass: 39.098300
    reduced_to: 55
  - symbol: K  # 104
    coordinates: [  0.333333333333333,  0.333333333333333,  0.833333333333333 ]
    mass: 39.098300
    reduced_to: 55
  - symbol: K  # 105
    coordinates: [  0.666666666666667,  0.333333333333333,  0.833333333333333 ]
    mass: 39.098300
    reduced_to: 55
  - symbol: K  # 106
    coordinates: [  0.000000000000000,  0.666666666666667,  0.833333333333333 ]
    mass: 39.098300
    reduced_to: 55
  - symbol: K  # 107
    coordinates: [  0.333333333333333,  0.666666666666667,  0.833333333333333 ]
    mass: 39.098300
    reduced_to: 55
  - symbol: K  # 108
    coordinates: [  0.666666666666667,  0.666666666666667,  0.833333333333333 ]
    mass: 39.098300
    reduced_to: 55
  - symbol: Au # 109
    coordinates: [  0.166666666666667,  0.000000000000000,  0.000000000000000 ]
    mass: 196.966569
    reduced_to: 109
  - symbol: Au # 110
    coordinates: [  0.500000000000000,  0.000000000000000,  0.000000000000000 ]
    mass: 196.966569
    reduced_to: 109
  - symbol: Au # 111
    coordinates: [  0.833333333333333,  0.000000000000000,  0.000000000000000 ]
    mass: 196.966569
    reduced_to: 109
  - symbol: Au # 112
    coordinates: [  0.166666666666667,  0.333333333333333,  0.000000000000000 ]
    mass: 196.966569
    reduced_to: 109
  - symbol: Au # 113
    coordinates: [  0.500000000000000,  0.333333333333333,  0.000000000000000 ]
    mass: 196.966569
    reduced_to: 109
  - symbol: Au # 114
    coordinates: [  0.833333333333333,  0.333333333333333,  0.000000000000000 ]
    mass: 196.966569
    reduced_to: 109
  - symbol: Au # 115
    coordinates: [  0.166666666666667,  0.666666666666667,  0.000000000000000 ]
    mass: 196.966569
    reduced_to: 109
  - symbol: Au # 116
    coordinates: [  0.500000000000000,  0.666666666666667,  0.000000000000000 ]
    mass: 196.966569
    reduced_to: 109
  - symbol: Au # 117
    coordinates: [  0.833333333333333,  0.666666666666667,  0.000000000000000 ]
    mass: 196.966569
    reduced_to: 109
  - symbol: Au # 118
    coordinates: [  0.166666666666667,  0.000000000000000,  0.166666666666667 ]
    mass: 196.966569
    reduced_to: 109
  - symbol: Au # 119
    coordinates: [  0.500000000000000,  0.000000000000000,  0.166666666666667 ]
    mass: 196.966569
    reduced_to: 109
  - symbol: Au # 120
    coordinates: [  0.833333333333333,  0.000000000000000,  0.166666666666667 ]
    mass: 196.966569
    reduced_to: 109
  - symbol: Au # 121
    coordinates: [  0.166666666666667,  0.333333333333333,  0.166666666666667 ]
    mass: 196.966569
    reduced_to: 109
  - symbol: Au # 122
    coordinates: [  0.500000000000000,  0.333333333333333,  0.166666666666667 ]
    mass: 196.966569
    reduced_to: 109
  - symbol: Au # 123
    coordinates: [  0.833333333333333,  0.333333333333333,  0.166666666666667 ]
    mass: 196.966569
    reduced_to: 109
  - symbol: Au # 124
    coordinates: [  0.166666666666667,  0.666666666666667,  0.166666666666667 ]
    mass: 196.966569
    reduced_to: 109
  - symbol: Au # 125
    coordinates: [  0.500000000000000,  0.666666666666667,  0.166666666666667 ]
    mass: 196.966569
    reduced_to: 109
  - symbol: Au # 126
    coordinates: [  0.833333333333333,  0.666666666666667,  0.166666666666667 ]
    mass: 196.966569
    reduced_to: 109
  - symbol: Au # 127
    coordinates: [  0.166666666666667,  0.000000000000000,  0.333333333333333 ]
    mass: 196.966569
    reduced_to: 109
  - symbol: Au # 128
    coordinates: [  0.500000000000000,  0.000000000000000,  0.333333333333333 ]
    mass: 196.966569
    reduced_to: 109
  - symbol: Au # 129
    coordinates: [  0.833333333333333,  0.000000000000000,  0.333333333333333 ]
    mass: 196.966569
    reduced_to: 109
  - symbol: Au # 130
    coordinates: [  0.166666666666667,  0.333333333333333,  0.333333333333333 ]
    mass: 196.966569
    reduced_to: 109
  - symbol: Au # 131
    coordinates: [  0.500000000000000,  0.333333333333333,  0.333333333333333 ]
    mass: 196.966569
    reduced_to: 109
  - symbol: Au # 132
    coordinates: [  0.833333333333333,  0.333333333333333,  0.333333333333333 ]
    mass: 196.966569
    reduced_to: 109
  - symbol: Au # 133
    coordinates: [  0.166666666666667,  0.666666666666667,  0.333333333333333 ]
    mass: 196.966569
    reduced_to: 109
  - symbol: Au # 134
    coordinates: [  0.500000000000000,  0.666666666666667,  0.333333333333333 ]
    mass: 196.966569
    reduced_to: 109
  - symbol: Au # 135
    coordinates: [  0.833333333333333,  0.666666666666667,  0.333333333333333 ]
    mass: 196.966569
    reduced_to: 109
  - symbol: Au # 136
    coordinates: [  0.166666666666667,  0.000000000000000,  0.500000000000000 ]
    mass: 196.966569
    reduced_to: 109
  - symbol: Au # 137
    coordinates: [  0.500000000000000,  0.000000000000000,  0.500000000000000 ]
    mass: 196.966569
    reduced_to: 109
  - symbol: Au # 138
    coordinates: [  0.833333333333333,  0.000000000000000,  0.500000000000000 ]
    mass: 196.966569
    reduced_to: 109
  - symbol: Au # 139
    coordinates: [  0.166666666666667,  0.333333333333333,  0.500000000000000 ]
    mass: 196.966569
    reduced_to: 109
  - symbol: Au # 140
    coordinates: [  0.500000000000000,  0.333333333333333,  0.500000000000000 ]
    mass: 196.966569
    reduced_to: 109
  - symbol: Au # 141
    coordinates: [  0.833333333333333,  0.333333333333333,  0.500000000000000 ]
    mass: 196.966569
    reduced_to: 109
  - symbol: Au # 142
    coordinates: [  0.166666666666667,  0.666666666666667,  0.500000000000000 ]
    mass: 196.966569
    reduced_to: 109
  - symbol: Au # 143
    coordinates: [  0.500000000000000,  0.666666666666667,  0.500000000000000 ]
    mass: 196.966569
    reduced_to: 109
  - symbol: Au # 144
    coordinates: [  0.833333333333333,  0.666666666666667,  0.500000000000000 ]
    mass: 196.966569
    reduced_to: 109
  - symbol: Au # 145
    coordinates: [  0.166666666666667,  0.000000000000000,  0.666666666666667 ]
    mass: 196.966569
    reduced_to: 109
  - symbol: Au # 146
    coordinates: [  0.500000000000000,  0.000000000000000,  0.666666666666667 ]
    mass: 196.966569
    reduced_to: 109
  - symbol: Au # 147
    coordinates: [  0.833333333333333,  0.000000000000000,  0.666666666666667 ]
    mass: 196.966569
    reduced_to: 109
  - symbol: Au # 148
    coordinates: [  0.166666666666667,  0.333333333333333,  0.666666666666667 ]
    mass: 196.966569
    reduced_to: 109
  - symbol: Au # 149
    coordinates: [  0.500000000000000,  0.333333333333333,  0.666666666666667 ]
    mass: 196.966569
    reduced_to: 109
  - symbol: Au # 150
    coordinates: [  0.833333333333333,  0.333333333333333,  0.666666666666667 ]
    mass: 196.966569
    reduced_to: 109
  - symbol: Au # 151
    coordinates: [  0.166666666666667,  0.666666666666667,  0.666666666666667 ]
    mass: 196.966569
    reduced_to: 109
  - symbol: Au # 152
    coordinates: [  0.500000000000000,  0.666666666666667,  0.666666666666667 ]
    mass: 196.966569
    reduced_to: 109
  - symbol: Au # 153
    coordinates: [  0.833333333333333,  0.666666666666667,  0.666666666666667 ]
    mass: 196.966569
    reduced_to: 109
  - symbol: Au # 154
    coordinates: [  0.166666666666667,  0.000000000000000,  0.833333333333333 ]
    mass: 196.966569
    reduced_to: 109
  - symbol: Au # 155
    coordinates: [  0.500000000000000,  0.000000000000000,  0.833333333333333 ]
    mass: 196.966569
    reduced_to: 109
  - symbol: Au # 156
    coordinates: [  0.833333333333333,  0.000000000000000,  0.833333333333333 ]
    mass: 196.966569
    reduced_to: 109
  - symbol: Au # 157
    coordinates: [  0.166666666666667,  0.333333333333333,  0.833333333333333 ]
    mass: 196.966569
    reduced_to: 109
  - symbol: Au # 158
    coordinates: [  0.500000000000000,  0.333333333333333,  0.833333333333333 ]
    mass: 196.966569
    reduced_to: 109
  - symbol: Au # 159
    coordinates: [  0.833333333333333,  0.333333333333333,  0.833333333333333 ]
    mass: 196.966569
    reduced_to: 109
  - symbol: Au # 160
    coordinates: [  0.166666666666667,  0.666666666666667,  0.833333333333333 ]
    mass: 196.966569
    reduced_to: 109
  - symbol: Au # 161
    coordinates: [  0.500000000000000,  0.666666666666667,  0.833333333333333 ]
    mass: 196.966569
    reduced_to: 109
  - symbol: Au # 162
    coordinates: [  0.833333333333333,  0.666666666666667,  0.833333333333333 ]
    mass: 196.966569
    reduced_to: 109
  - symbol: Au # 163
    coordinates: [  0.000000000000000,  0.166666666666667,  0.000000000000000 ]
    mass: 196.966569
    reduced_to: 163
  - symbol: Au # 164
    coordinates: [  0.333333333333333,  0.166666666666667,  0.000000000000000 ]
    mass: 196.966569
    reduced_to: 163
  - symbol: Au # 165
    coordinates: [  0.666666666666667,  0.166666666666667,  0.000000000000000 ]
    mass: 196.966569
    reduced_to: 163
  - symbol: Au # 166
    coordinates: [  0.000000000000000,  0.500000000000000,  0.000000000000000 ]
    mass: 196.966569
    reduced_to: 163
  - symbol: Au # 167
    coordinates: [  0.333333333333333,  0.500000000000000,  0.000000000000000 ]
    mass: 196.966569
    reduced_to: 163
  - symbol: Au # 168
    coordinates: [  0.666666666666667,  0.500000000000000,  0.000000000000000 ]
    mass: 196.966569
    reduced_to: 163
  - symbol: Au # 169
    coordinates: [  0.000000000000000,  0.833333333333333,  0.000000000000000 ]
    mass: 196.966569
    reduced_to: 163
  - symbol: Au # 170
    coordinates: [  0.333333333333333,  0.833333333333333,  0.000000000000000 ]
    mass: 196.966569
    reduced_to: 163
  - symbol: Au # 171
    coordinates: [  0.666666666666667,  0.833333333333333,  0.000000000000000 ]
    mass: 196.966569
    reduced_to: 163
  - symbol: Au # 172
    coordinates: [  0.000000000000000,  0.166666666666667,  0.166666666666667 ]
    mass: 196.966569
    reduced_to: 163
  - symbol: Au # 173
    coordinates: [  0.333333333333333,  0.166666666666667,  0.166666666666667 ]
    mass: 196.966569
    reduced_to: 163
  - symbol: Au # 174
    coordinates: [  0.666666666666667,  0.166666666666667,  0.166666666666667 ]
    mass: 196.966569
    reduced_to: 163
  - symbol: Au # 175
    coordinates: [  0.000000000000000,  0.500000000000000,  0.166666666666667 ]
    mass: 196.966569
    reduced_to: 163
  - symbol: Au # 176
    coordinates: [  0.333333333333333,  0.500000000000000,  0.166666666666667 ]
    mass: 196.966569
    reduced_to: 163
  - symbol: Au # 177
    coordinates: [  0.666666666666667,  0.500000000000000,  0.166666666666667 ]
    mass: 196.966569
    reduced_to: 163
  - symbol: Au # 178
    coordinates: [  0.000000000000000,  0.833333333333333,  0.166666666666667 ]
    mass: 196.966569
    reduced_to: 163
  - symbol: Au # 179
    coordinates: [  0.333333333333333,  0.833333333333333,  0.166666666666667 ]
    mass: 196.966569
    reduced_to: 163
  - symbol: Au # 180
    coordinates: [  0.666666666666667,  0.833333333333333,  0.166666666666667 ]
    mass: 196.966569
    reduced_to: 163
  - symbol: Au # 181
    coordinates: [  0.000000000000000,  0.166666666666667,  0.333333333333333 ]
    mass: 196.966569
    reduced_to: 163
  - symbol: Au # 182
    coordinates: [  0.333333333333333,  0.166666666666667,  0.333333333333333 ]
    mass: 196.966569
    reduced_to: 163
  - symbol: Au # 183
    coordinates: [  0.666666666666667,  0.166666666666667,  0.333333333333333 ]
    mass: 196.966569
    reduced_to: 163
  - symbol: Au # 184
    coordinates: [  0.000000000000000,  0.500000000000000,  0.333333333333333 ]
    mass: 196.966569
    reduced_to: 163
  - symbol: Au # 185
    coordinates: [  0.333333333333333,  0.500000000000000,  0.333333333333333 ]
    mass: 196.966569
    reduced_to: 163
  - symbol: Au # 186
    coordinates: [  0.666666666666667,  0.500000000000000,  0.333333333333333 ]
    mass: 196.966569
    reduced_to: 163
  - symbol: Au # 187
    coordinates: [  0.000000000000000,  0.833333333333333,  0.333333333333333 ]
    mass: 196.966569
    reduced_to: 163
  - symbol: Au # 188
    coordinates: [  0.333333333333333,  0.833333333333333,  0.333333333333333 ]
    mass: 196.966569
    reduced_to: 163
  - symbol: Au # 189