phonopy:
  version: "2.21.0"
  frequency_unit_conversion_factor: 15.633302
  symmetry_tolerance: 1.00000e-04

space_group:
  type: "Pma2"
  number: 28
  Hall_symbol: "P 2 -2a"

primitive_matrix:
- [  0.000000000000000,  0.000000000000000,  1.000000000000000 ]
- [  0.000000000000000,  1.000000000000000,  0.000000000000000 ]
- [ -1.000000000000000,  0.000000000000000, -0.000000000000000 ]

supercell_matrix:
- [   6,   0,   0 ]
- [   0,   3,   0 ]
- [   0,   0,   2 ]

primitive_cell:
  lattice:
  - [     0.000000000000000,     0.000000000000000,   -16.884364019477367 ] # a
  - [    -0.000000000000001,     8.917964774009343,     0.000000000000001 ] # b
  - [     4.515601715365394,     0.000000000000000,     0.000000000000000 ] # c
  points:
  - symbol: Te # 1
    coordinates: [  0.619565937692917,  0.031227576137029,  0.447146479666733 ]
    mass: 127.600000
  - symbol: Te # 2
    coordinates: [  0.380434062307083,  0.968772423862971,  0.447146479666733 ]
    mass: 127.600000
  - symbol: Te # 3
    coordinates: [  0.119565937692917,  0.968772423862971,  0.447146479666733 ]
    mass: 127.600000
  - symbol: Te # 4
    coordinates: [  0.880434062307083,  0.031227576137029,  0.447146479666733 ]
    mass: 127.600000
  - symbol: Te # 5
    coordinates: [  0.629557735691886,  0.640578897784231,  0.519636190089175 ]
    mass: 127.600000
  - symbol: Te # 6
    coordinates: [  0.370442264308114,  0.359421102215769,  0.519636190089175 ]
    mass: 127.600000
  - symbol: Te # 7
    coordinates: [  0.129557735691886,  0.359421102215769,  0.519636190089175 ]
    mass: 127.600000
  - symbol: Te # 8
    coordinates: [  0.870442264308114,  0.640578897784231,  0.519636190089175 ]
    mass: 127.600000
  - symbol: Te # 9
    coordinates: [  0.750000000000000,  0.981319774605866,  0.019713623562678 ]
    mass: 127.600000
  - symbol: Te # 10
    coordinates: [  0.250000000000000,  0.018680225394134,  0.019713623562678 ]
    mass: 127.600000
  - symbol: Te # 11
    coordinates: [  0.750000000000000,  0.377548245587755,  0.109994144379861 ]
    mass: 127.600000
  - symbol: Te # 12
    coordinates: [  0.250000000000000,  0.622451754412245,  0.109994144379861 ]
    mass: 127.600000
  - symbol: Te # 13
    coordinates: [  0.006766637192855,  0.697349711342318,  0.905208409066113 ]
    mass: 127.600000
  - symbol: Te # 14
    coordinates: [  0.993233362807145,  0.302650288657675,  0.905208409066113 ]
    mass: 127.600000
  - symbol: Te # 15
    coordinates: [  0.506766637192855,  0.302650288657675,  0.905208409066113 ]
    mass: 127.600000
  - symbol: Te # 16
    coordinates: [  0.493233362807145,  0.697349711342318,  0.905208409066113 ]
    mass: 127.600000
  - symbol: Au # 17
    coordinates: [  0.625752473153852,  0.334892822621684,  0.493694428448509 ]
    mass: 196.966569
  - symbol: Au # 18
    coordinates: [  0.374247526846148,  0.665107177378316,  0.493694428448509 ]
    mass: 196.966569
  - symbol: Au # 19
    coordinates: [  0.125752473153852,  0.665107177378316,  0.493694428448509 ]
    mass: 196.966569
  - symbol: Au # 20
    coordinates: [  0.874247526846148,  0.334892822621684,  0.493694428448509 ]
    mass: 196.966569
  - symbol: Au # 21
    coordinates: [  0.250000000000000,  0.322717611013267,  0.012035757527858 ]
    mass: 196.966569
  - symbol: Au # 22
    coordinates: [  0.750000000000000,  0.677282388986733,  0.012035757527858 ]
    mass: 196.966569
  - symbol: Au # 23
    coordinates: [  0.500000000000000,  0.000000000000000,  0.956879459988558 ]
    mass: 196.966569
  - symbol: Au # 24
    coordinates: [  1.000000000000000,  0.000000000000000,  0.956879459988558 ]
    mass: 196.966569
  reciprocal_lattice: # without 2pi
  - [     0.000000000000000,     0.000000000000000,    -0.059226394245376 ] # a*
  - [     0.000000000000000,     0.112133208118787,    -0.000000000000000 ] # b*
  - [     0.221454429117888,     0.000000000000000,    -0.000000000000000 ] # c*

unit_cell:
  lattice:
  - [     4.515601715365395,     0.000000000000000,     0.000000000000000 ] # a
  - [    -0.000000000000001,     8.917964774009343,     0.000000000000001 ] # b
  - [     0.000000000000000,     0.000000000000000,    16.884364019477367 ] # c
  points:
  - symbol: Te # 1
    coordinates: [  0.447146479666733,  0.031227576137029,  0.380434062307083 ]
    mass: 127.600000
    reduced_to: 1
  - symbol: Te # 2
    coordinates: [  0.447146479666733,  0.968772423862971,  0.619565937692917 ]
    mass: 127.600000
    reduced_to: 2
  - symbol: Te # 3
    coordinates: [  0.447146479666733,  0.968772423862971,  0.880434062307083 ]
    mass: 127.600000
    reduced_to: 3
  - symbol: Te # 4
    coordinates: [  0.447146479666733,  0.031227576137029,  0.119565937692917 ]
    mass: 127.600000
    reduced_to: 4
  - symbol: Te # 5
    coordinates: [  0.519636190089175,  0.640578897784231,  0.370442264308114 ]
    mass: 127.600000
    reduced_to: 5
  - symbol: Te # 6
    coordinates: [  0.519636190089175,  0.359421102215769,  0.629557735691886 ]
    mass: 127.600000
    reduced_to: 6
  - symbol: Te # 7
    coordinates: [  0.519636190089175,  0.359421102215769,  0.870442264308114 ]
    mass: 127.600000
    reduced_to: 7
  - symbol: Te # 8
    coordinates: [  0.519636190089175,  0.640578897784231,  0.129557735691886 ]
    mass: 127.600000
    reduced_to: 8
  - symbol: Te # 9
    coordinates: [  0.019713623562678,  0.981319774605866,  0.250000000000000 ]
    mass: 127.600000
    reduced_to: 9
  - symbol: Te # 10
    coordinates: [  0.019713623562678,  0.018680225394134,  0.750000000000000 ]
    mass: 127.600000
    reduced_to: 10
  - symbol: Te # 11
    coordinates: [  0.109994144379861,  0.377548245587755,  0.250000000000000 ]
    mass: 127.600000
    reduced_to: 11
  - symbol: Te # 12
    coordinates: [  0.109994144379861,  0.622451754412245,  0.750000000000000 ]
    mass: 127.600000
    reduced_to: 12
  - symbol: Te # 13
    coordinates: [  0.905208409066113,  0.697349711342318,  0.993233362807145 ]
    mass: 127.600000
    reduced_to: 13
  - symbol: Te # 14
    coordinates: [  0.905208409066113,  0.302650288657675,  0.006766637192855 ]
    mass: 127.600000
    reduced_to: 14
  - symbol: Te # 15
    coordinates: [  0.905208409066113,  0.302650288657675,  0.493233362807145 ]
    mass: 127.600000
    reduced_to: 15
  - symbol: Te # 16
    coordinates: [  0.905208409066113,  0.697349711342318,  0.506766637192855 ]
    mass: 127.600000
    reduced_to: 16
  - symbol: Au # 17
    coordinates: [  0.493694428448509,  0.334892822621684,  0.374247526846148 ]
    mass: 196.966569
    reduced_to: 17
  - symbol: Au # 18
    coordinates: [  0.493694428448509,  0.665107177378316,  0.625752473153852 ]
    mass: 196.966569
    reduced_to: 18
  - symbol: Au # 19
    coordinates: [  0.493694428448509,  0.665107177378316,  0.874247526846148 ]
    mass: 196.966569
    reduced_to: 19
  - symbol: Au # 20
    coordinates: [  0.493694428448509,  0.334892822621684,  0.125752473153852 ]
    mass: 196.966569
    reduced_to: 20
  - symbol: Au # 21
    coordinates: [  0.012035757527858,  0.322717611013267,  0.750000000000000 ]
    mass: 196.966569
    reduced_to: 21
  - symbol: Au # 22
    coordinates: [  0.012035757527858,  0.677282388986733,  0.250000000000000 ]
    mass: 196.966569
    reduced_to: 22
  - symbol: Au # 23
    coordinates: [  0.956879459988558,  0.000000000000000,  0.500000000000000 ]
    mass: 196.966569
    reduced_to: 23
  - symbol: Au # 24
    coordinates: [  0.956879459988558,  0.000000000000000,  0.000000000000000 ]
    mass: 196.966569
    reduced_to: 24

supercell:
  lattice:
  - [    27.093610292192366,     0.000000000000000,     0.000000000000002 ] # a
  - [    -0.000000000000002,    26.753894322028032,     0.000000000000002 ] # b
  - [     0.000000000000000,     0.000000000000000,    33.768728038954734 ] # c
  points:
  - symbol: Te # 1
    coordinates: [  0.074524413277789,  0.010409192045676,  0.190217031153542 ]
    mass: 127.600000
    reduced_to: 1
  - symbol: Te # 2
    coordinates: [  0.241191079944456,  0.010409192045676,  0.190217031153542 ]
    mass: 127.600000
    reduced_to: 1
  - symbol: Te # 3
    coordinates: [  0.407857746611122,  0.010409192045676,  0.190217031153542 ]
    mass: 127.600000
    reduced_to: 1
  - symbol: Te # 4
    coordinates: [  0.574524413277789,  0.010409192045676,  0.190217031153542 ]
    mass: 127.600000
    reduced_to: 1
  - symbol: Te # 5
    coordinates: [  0.741191079944455,  0.010409192045676,  0.190217031153542 ]
    mass: 127.600000
    reduced_to: 1
  - symbol: Te # 6
    coordinates: [  0.907857746611122,  0.010409192045676,  0.190217031153542 ]
    mass: 127.600000
    reduced_to: 1
  - symbol: Te # 7
    coordinates: [  0.074524413277789,  0.343742525379010,  0.190217031153542 ]
    mass: 127.600000
    reduced_to: 1
  - symbol: Te # 8
    coordinates: [  0.241191079944456,  0.343742525379010,  0.190217031153542 ]
    mass: 127.600000
    reduced_to: 1
  - symbol: Te # 9
    coordinates: [  0.407857746611122,  0.343742525379010,  0.190217031153542 ]
    mass: 127.600000
    reduced_to: 1
  - symbol: Te # 10
    coordinates: [  0.574524413277789,  0.343742525379010,  0.190217031153542 ]
    mass: 127.600000
    reduced_to: 1
  - symbol: Te # 11
    coordinates: [  0.741191079944455,  0.343742525379010,  0.190217031153542 ]
    mass: 127.600000
    reduced_to: 1
  - symbol: Te # 12
    coordinates: [  0.907857746611122,  0.343742525379010,  0.190217031153542 ]
    mass: 127.600000
    reduced_to: 1
  - symbol: Te # 13
    coordinates: [  0.074524413277789,  0.677075858712343,  0.190217031153542 ]
    mass: 127.600000
    reduced_to: 1
  - symbol: Te # 14
    coordinates: [  0.241191079944456,  0.677075858712343,  0.190217031153542 ]
    mass: 127.600000
    reduced_to: 1
  - symbol: Te # 15
    coordinates: [  0.407857746611122,  0.677075858712343,  0.190217031153542 ]
    mass: 127.600000
    reduced_to: 1
  - symbol: Te # 16
    coordinates: [  0.574524413277789,  0.677075858712343,  0.190217031153542 ]
    mass: 127.600000
    reduced_to: 1
  - symbol: Te # 17
    coordinates: [  0.741191079944455,  0.677075858712343,  0.190217031153542 ]
    mass: 127.600000
    reduced_to: 1
  - symbol: Te # 18
    coordinates: [  0.907857746611122,  0.677075858712343,  0.190217031153542 ]
    mass: 127.600000
    reduced_to: 1
  - symbol: Te # 19
    coordinates: [  0.074524413277789,  0.010409192045676,  0.690217031153542 ]
    mass: 127.600000
    reduced_to: 1
  - symbol: Te # 20
    coordinates: [  0.241191079944456,  0.010409192045676,  0.690217031153542 ]
    mass: 127.600000
    reduced_to: 1
  - symbol: Te # 21
    coordinates: [  0.407857746611122,  0.010409192045676,  0.690217031153542 ]
    mass: 127.600000
    reduced_to: 1
  - symbol: Te # 22
    coordinates: [  0.574524413277789,  0.010409192045676,  0.690217031153542 ]
    mass: 127.600000
    reduced_to: 1
  - symbol: Te # 23
    coordinates: [  0.741191079944455,  0.010409192045676,  0.690217031153542 ]
    mass: 127.600000
    reduced_to: 1
  - symbol: Te # 24
    coordinates: [  0.907857746611122,  0.010409192045676,  0.690217031153542 ]
    mass: 127.600000
    reduced_to: 1
  - symbol: Te # 25
    coordinates: [  0.074524413277789,  0.343742525379010,  0.690217031153542 ]
    mass: 127.600000
    reduced_to: 1
  - symbol: Te # 26
    coordinates: [  0.241191079944456,  0.343742525379010,  0.690217031153542 ]
    mass: 127.600000
    reduced_to: 1
  - symbol: Te # 27
    coordinates: [  0.407857746611122,  0.343742525379010,  0.690217031153542 ]
    mass: 127.600000
    reduced_to: 1
  - symbol: Te # 28
    coordinates: [  0.574524413277789,  0.343742525379010,  0.690217031153542 ]
    mass: 127.600000
    reduced_to: 1
  - symbol: Te # 29
    coordinates: [  0.741191079944455,  0.343742525379010,  0.690217031153542 ]
    mass: 127.600000
    reduced_to: 1
  - symbol: Te # 30
    coordinates: [  0.907857746611122,  0.343742525379010,  0.690217031153542 ]
    mass: 127.600000
    reduced_to: 1
  - symbol: Te # 31
    coordinates: [  0.074524413277789,  0.677075858712343,  0.690217031153542 ]
    mass: 127.600000
    reduced_to: 1
  - symbol: Te # 32
    coordinates: [  0.241191079944456,  0.677075858712343,  0.690217031153542 ]
    mass: 127.600000
    reduced_to: 1
  - symbol: Te # 33
    coordinates: [  0.407857746611122,  0.677075858712343,  0.690217031153542 ]
    mass: 127.600000
    reduced_to: 1
  - symbol: Te # 34
    coordinates: [  0.574524413277789,  0.677075858712343,  0.690217031153542 ]
    mass: 127.600000
    reduced_to: 1
  - symbol: Te # 35
    coordinates: [  0.741191079944455,  0.677075858712343,  0.690217031153542 ]
    mass: 127.600000
    reduced_to: 1
  - symbol: Te # 36
    coordinates: [  0.907857746611122,  0.677075858712343,  0.690217031153542 ]
    mass: 127.600000
    reduced_to: 1
  - symbol: Te # 37
    coordinates: [  0.074524413277789,  0.322924141287657,  0.309782968846458 ]
    mass: 127.600000
    reduced_to: 37
  - symbol: Te # 38
    coordinates: [  0.241191079944456,  0.322924141287657,  0.309782968846458 ]
    mass: 127.600000
    reduced_to: 37
  - symbol: Te # 39
    coordinates: [  0.407857746611122,  0.322924141287657,  0.309782968846458 ]
    mass: 127.600000
    reduced_to: 37
  - symbol: Te # 40
    coordinates: [  0.574524413277789,  0.322924141287657,  0.309782968846458 ]
    mass: 127.600000
    reduced_to: 37
  - symbol: Te # 41
    coordinates: [  0.741191079944455,  0.322924141287657,  0.309782968846458 ]
    mass: 127.600000
    reduced_to: 37
  - symbol: Te # 42
    coordinates: [  0.907857746611122,  0.322924141287657,  0.309782968846458 ]
    mass: 127.600000
    reduced_to: 37
  - symbol: Te # 43
    coordinates: [  0.074524413277789,  0.656257474620990,  0.309782968846458 ]
    mass: 127.600000
    reduced_to: 37
  - symbol: Te # 44
    coordinates: [  0.241191079944456,  0.656257474620990,  0.309782968846458 ]
    mass: 127.600000
    reduced_to: 37
  - symbol: Te # 45
    coordinates: [  0.407857746611122,  0.656257474620990,  0.309782968846458 ]
    mass: 127.600000
    reduced_to: 37
  - symbol: Te # 46
    coordinates: [  0.574524413277789,  0.656257474620990,  0.309782968846458 ]
    mass: 127.600000
    reduced_to: 37
  - symbol: Te # 47
    coordinates: [  0.741191079944455,  0.656257474620990,  0.309782968846458 ]
    mass: 127.600000
    reduced_to: 37
  - symbol: Te # 48
    coordinates: [  0.907857746611122,  0.656257474620990,  0.309782968846458 ]
    mass: 127.600000
    reduced_to: 37
  - symbol: Te # 49
    coordinates: [  0.074524413277789,  0.989590807954324,  0.309782968846458 ]
    mass: 127.600000
    reduced_to: 37
  - symbol: Te # 50
    coordinates: [  0.241191079944456,  0.989590807954324,  0.309782968846458 ]
    mass: 127.600000
    reduced_to: 37
  - symbol: Te # 51
    coordinates: [  0.407857746611122,  0.989590807954324,  0.309782968846458 ]
    mass: 127.600000
    reduced_to: 37
  - symbol: Te # 52
    coordinates: [  0.574524413277789,  0.989590807954324,  0.309782968846458 ]
    mass: 127.600000
    reduced_to: 37
  - symbol: Te # 53
    coordinates: [  0.741191079944455,  0.989590807954324,  0.309782968846458 ]
    mass: 127.600000
    reduced_to: 37
  - symbol: Te # 54
    coordinates: [  0.907857746611122,  0.989590807954324,  0.309782968846458 ]
    mass: 127.600000
    reduced_to: 37
  - symbol: Te # 55
    coordinates: [  0.074524413277789,  0.322924141287657,  0.809782968846458 ]
    mass: 127.600000
    reduced_to: 37
  - symbol: Te # 56
    coordinates: [  0.241191079944456,  0.322924141287657,  0.809782968846458 ]
    mass: 127.600000
    reduced_to: 37
  - symbol: Te # 57
    coordinates: [  0.407857746611122,  0.322924141287657,  0.809782968846458 ]
    mass: 127.600000
    reduced_to: 37
  - symbol: Te # 58
    coordinates: [  0.574524413277789,  0.322924141287657,  0.809782968846458 ]
    mass: 127.600000
    reduced_to: 37
  - symbol: Te # 59
    coordinates: [  0.741191079944455,  0.322924141287657,  0.809782968846458 ]
    mass: 127.600000
    reduced_to: 37
  - symbol: Te # 60
    coordinates: [  0.907857746611122,  0.322924141287657,  0.809782968846458 ]
    mass: 127.600000
    reduced_to: 37
  - symbol: Te # 61
    coordinates: [  0.074524413277789,  0.656257474620990,  0.809782968846458 ]
    mass: 127.600000
    reduced_to: 37
  - symbol: Te # 62
    coordinates: [  0.241191079944456,  0.656257474620990,  0.809782968846458 ]
    mass: 127.600000
    reduced_to: 37
  - symbol: Te # 63
    coordinates: [  0.407857746611122,  0.656257474620990,  0.809782968846458 ]
    mass: 127.600000
    reduced_to: 37
  - symbol: Te # 64
    coordinates: [  0.574524413277789,  0.656257474620990,  0.809782968846458 ]
    mass: 127.600000
    reduced_to: 37
  - symbol: Te # 65
    coordinates: [  0.741191079944455,  0.656257474620990,  0.809782968846458 ]
    mass: 127.600000
    reduced_to: 37
  - symbol: Te # 66
    coordinates: [  0.907857746611122,  0.656257474620990,  0.809782968846458 ]
    mass: 127.600000
    reduced_to: 37
  - symbol: Te # 67
    coordinates: [  0.074524413277789,  0.989590807954324,  0.809782968846458 ]
    mass: 127.600000
    reduced_to: 37
  - symbol: Te # 68
    coordinates: [  0.241191079944456,  0.989590807954324,  0.809782968846458 ]
    mass: 127.600000
    reduced_to: 37
  - symbol: Te # 69
    coordinates: [  0.407857746611122,  0.989590807954324,  0.809782968846458 ]
    mass: 127.600000
    reduced_to: 37
  - symbol: Te # 70
    coordinates: [  0.574524413277789,  0.989590807954324,  0.809782968846458 ]
    mass: 127.600000
    reduced_to: 37
  - symbol: Te # 71
    coordinates: [  0.741191079944455,  0.989590807954324,  0.809782968846458 ]
    mass: 127.600000
    reduced_to: 37
  - symbol: Te # 72
    coordinates: [  0.907857746611122,  0.989590807954324,  0.809782968846458 ]
    mass: 127.600000
    reduced_to: 37
  - symbol: Te # 73
    coordinates: [  0.074524413277789,  0.322924141287657,  0.440217031153542 ]
    mass: 127.600000
    reduced_to: 73
  - symbol: Te # 74
    coordinates: [  0.241191079944456,  0.322924141287657,  0.440217031153542 ]
    mass: 127.600000
    reduced_to: 73
  - symbol: Te # 75
    coordinates: [  0.407857746611122,  0.322924141287657,  0.440217031153542 ]
    mass: 127.600000
    reduced_to: 73
  - symbol: Te # 76
    coordinates: [  0.574524413277789,  0.322924141287657,  0.440217031153542 ]
    mass: 127.600000
    reduced_to: 73
  - symbol: Te # 77
    coordinates: [  0.741191079944455,  0.322924141287657,  0.440217031153542 ]
    mass: 127.600000
    reduced_to: 73
  - symbol: Te # 78
    coordinates: [  0.907857746611122,  0.322924141287657,  0.440217031153542 ]
    mass: 127.600000
    reduced_to: 73
  - symbol: Te # 79
    coordinates: [  0.074524413277789,  0.656257474620990,  0.440217031153542 ]
    mass: 127.600000
    reduced_to: 73
  - symbol: Te # 80
    coordinates: [  0.241191079944456,  0.656257474620990,  0.440217031153542 ]
    mass: 127.600000
    reduced_to: 73
  - symbol: Te # 81
    coordinates: [  0.407857746611122,  0.656257474620990,  0.440217031153542 ]
    mass: 127.600000
    reduced_to: 73
  - symbol: Te # 82
    coordinates: [  0.574524413277789,  0.656257474620990,  0.440217031153542 ]
    mass: 127.600000
    reduced_to: 73
  - symbol: Te # 83
    coordinates: [  0.741191079944455,  0.656257474620990,  0.440217031153542 ]
    mass: 127.600000
    reduced_to: 73
  - symbol: Te # 84
    coordinates: [  0.907857746611122,  0.656257474620990,  0.440217031153542 ]
    mass: 127.600000
    reduced_to: 73
  - symbol: Te # 85
    coordinates: [  0.074524413277789,  0.989590807954324,  0.440217031153542 ]
    mass: 127.600000
    reduced_to: 73
  - symbol: Te # 86
    coordinates: [  0.241191079944456,  0.989590807954324,  0.440217031153542 ]
    mass: 127.600000
    reduced_to: 73
  - symbol: Te # 87
    coordinates: [  0.407857746611122,  0.989590807954324,  0.440217031153542 ]
    mass: 127.600000
    reduced_to: 73
  - symbol: Te # 88
    coordinates: [  0.574524413277789,  0.989590807954324,  0.440217031153542 ]
    mass: 127.600000
    reduced_to: 73
  - symbol: Te # 89
    coordinates: [  0.741191079944455,  0.989590807954324,  0.440217031153542 ]
    mass: 127.600000
    reduced_to: 73
  - symbol: Te # 90
    coordinates: [  0.907857746611122,  0.989590807954324,  0.440217031153542 ]
    mass: 127.600000
    reduced_to: 73
  - symbol: Te # 91
    coordinates: [  0.074524413277789,  0.322924141287657,  0.940217031153542 ]
    mass: 127.600000
    reduced_to: 73
  - symbol: Te # 92
    coordinates: [  0.241191079944456,  0.322924141287657,  0.940217031153542 ]
    mass: 127.600000
    reduced_to: 73
  - symbol: Te # 93
    coordinates: [  0.407857746611122,  0.322924141287657,  0.940217031153542 ]
    mass: 127.600000
    reduced_to: 73
  - symbol: Te # 94
    coordinates: [  0.574524413277789,  0.322924141287657,  0.940217031153542 ]
    mass: 127.600000
    reduced_to: 73
  - symbol: Te # 95
    coordinates: [  0.741191079944455,  0.322924141287657,  0.940217031153542 ]
    mass: 127.600000
    reduced_to: 73
  - symbol: Te # 96
    coordinates: [  0.907857746611122,  0.322924141287657,  0.940217031153542 ]
    mass: 127.600000
    reduced_to: 73
  - symbol: Te # 97
    coordinates: [  0.074524413277789,  0.656257474620990,  0.940217031153542 ]
    mass: 127.600000
    reduced_to: 73
  - symbol: Te # 98
    coordinates: [  0.241191079944456,  0.656257474620990,  0.940217031153542 ]
    mass: 127.600000
    reduced_to: 73
  - symbol: Te # 99
    coordinates: [  0.407857746611122,  0.656257474620990,  0.940217031153542 ]
    mass: 127.600000
    reduced_to: 73
  - symbol: Te # 100
    coordinates: [  0.574524413277789,  0.656257474620990,  0.940217031153542 ]
    mass: 127.600000
    reduced_to: 73
  - symbol: Te # 101
    coordinates: [  0.741191079944455,  0.656257474620990,  0.940217031153542 ]
    mass: 127.600000
    reduced_to: 73
  - symbol: Te # 102
    coordinates: [  0.907857746611122,  0.656257474620990,  0.940217031153542 ]
    mass: 127.600000
    reduced_to: 73
  - symbol: Te # 103
    coordinates: [  0.074524413277789,  0.989590807954324,  0.940217031153542 ]
    mass: 127.600000
    reduced_to: 73
  - symbol: Te # 104
    coordinates: [  0.241191079944456,  0.989590807954324,  0.940217031153542 ]
    mass: 127.600000
    reduced_to: 73
  - symbol: Te # 105
    coordinates: [  0.407857746611122,  0.989590807954324,  0.940217031153542 ]
    mass: 127.600000
    reduced_to: 73
  - symbol: Te # 106
    coordinates: [  0.574524413277789,  0.989590807954324,  0.940217031153542 ]
    mass: 127.600000
    reduced_to: 73
  - symbol: Te # 107
    coordinates: [  0.741191079944455,  0.989590807954324,  0.940217031153542 ]
    mass: 127.600000
    reduced_to: 73
  - symbol: Te # 108
    coordinates: [  0.907857746611122,  0.989590807954324,  0.940217031153542 ]
    mass: 127.600000
    reduced_to: 73
  - symbol: Te # 109
    coordinates: [  0.074524413277789,  0.010409192045676,  0.059782968846458 ]
    mass: 127.600000
    reduced_to: 109
  - symbol: Te # 110
    coordinates: [  0.241191079944456,  0.010409192045676,  0.059782968846458 ]
    mass: 127.600000
    reduced_to: 109
  - symbol: Te # 111
    coordinates: [  0.407857746611122,  0.010409192045676,  0.059782968846458 ]
    mass: 127.600000
    reduced_to: 109
  - symbol: Te # 112
    coordinates: [  0.574524413277789,  0.010409192045676,  0.059782968846458 ]
    mass: 127.600000
    reduced_to: 109
  - symbol: Te # 113
    coordinates: [  0.741191079944455,  0.010409192045676,  0.059782968846458 ]
    mass: 127.600000
    reduced_to: 109
  - symbol: Te # 114
    coordinates: [  0.907857746611122,  0.010409192045676,  0.059782968846458 ]
    mass: 127.600000
    reduced_to: 109
  - symbol: Te # 115
    coordinates: [  0.074524413277789,  0.343742525379010,  0.059782968846458 ]
    mass: 127.600000
    reduced_to: 109
  - symbol: Te # 116
    coordinates: [  0.241191079944456,  0.343742525379010,  0.059782968846458 ]
    mass: 127.600000
    reduced_to: 109
  - symbol: Te # 117
    coordinates: [  0.407857746611122,  0.343742525379010,  0.059782968846458 ]
    mass: 127.600000
    reduced_to: 109
  - symbol: Te # 118
    coordinates: [  0.574524413277789,  0.343742525379010,  0.059782968846458 ]
    mass: 127.600000
    reduced_to: 109
  - symbol: Te # 119
    coordinates: [  0.741191079944455,  0.343742525379010,  0.059782968846458 ]
    mass: 127.600000
    reduced_to: 109
  - symbol: Te # 120
    coordinates: [  0.907857746611122,  0.343742525379010,  0.059782968846458 ]
    mass: 127.600000
    reduced_to: 109
  - symbol: Te # 121
    coordinates: [  0.074524413277789,  0.677075858712343,  0.059782968846458 ]
    mass: 127.600000
    reduced_to: 109
  - symbol: Te # 122
    coordinates: [  0.241191079944456,  0.677075858712343,  0.059782968846458 ]
    mass: 127.600000
    reduced_to: 109
  - symbol: Te # 123
    coordinates: [  0.407857746611122,  0.677075858712343,  0.059782968846458 ]
    mass: 127.600000
    reduced_to: 109
  - symbol: Te # 124
    coordinates: [  0.574524413277789,  0.677075858712343,  0.059782968846458 ]
    mass: 127.600000
    reduced_to: 109
  - symbol: Te # 125
    coordinates: [  0.741191079944455,  0.677075858712343,  0.059782968846458 ]
    mass: 127.600000
    reduced_to: 109
  - symbol: Te # 126
    coordinates: [  0.907857746611122,  0.677075858712343,  0.059782968846458 ]
    mass: 127.600000
    reduced_to: 109
  - symbol: Te # 127
    coordinates: [  0.074524413277789,  0.010409192045676,  0.559782968846458 ]
    mass: 127.600000
    reduced_to: 109
  - symbol: Te # 128
    coordinates: [  0.241191079944456,  0.010409192045676,  0.559782968846458 ]
    mass: 127.600000
    reduced_to: 109
  - symbol: Te # 129
    coordinates: [  0.407857746611122,  0.010409192045676,  0.559782968846458 ]
    mass: 127.600000
    reduced_to: 109
  - symbol: Te # 130
    coordinates: [  0.574524413277789,  0.010409192045676,  0.559782968846458 ]
    mass: 127.600000
    reduced_to: 109
  - symbol: Te # 131
    coordinates: [  0.741191079944455,  0.010409192045676,  0.559782968846458 ]
    mass: 127.600000
    reduced_to: 109
  - symbol: Te # 132
    coordinates: [  0.907857746611122,  0.010409192045676,  0.559782968846458 ]
    mass: 127.600000
    reduced_to: 109
  - symbol: Te # 133
    coordinates: [  0.074524413277789,  0.343742525379010,  0.559782968846458 ]
    mass: 127.600000
    reduced_to: 109
  - symbol: Te # 134
    coordinates: [  0.241191079944456,  0.343742525379010,  0.559782968846458 ]
    mass: 127.600000
    reduced_to: 109
  - symbol: Te # 135
    coordinates: [  0.407857746611122,  0.343742525379010,  0.559782968846458 ]
    mass: 127.600000
    reduced_to: 109
  - symbol: Te # 136
    coordinates: [  0.574524413277789,  0.343742525379010,  0.559782968846458 ]
    mass: 127.600000
    reduced_to: 109
  - symbol: Te # 137
    coordinates: [  0.741191079944455,  0.343742525379010,  0.559782968846458 ]
    mass: 127.600000
    reduced_to: 109
  - symbol: Te # 138
    coordinates: [  0.907857746611122,  0.343742525379010,  0.559782968846458 ]
    mass: 127.600000
    reduced_to: 109
  - symbol: Te # 139
    coordinates: [  0.074524413277789,  0.677075858712343,  0.559782968846458 ]
    mass: 127.600000
    reduced_to: 109
  - symbol: Te # 140
    coordinates: [  0.241191079944456,  0.677075858712343,  0.559782968846458 ]
    mass: 127.600000
    reduced_to: 109
  - symbol: Te # 141
    coordinates: [  0.407857746611122,  0.677075858712343,  0.559782968846458 ]
    mass: 127.600000
    reduced_to: 109
  - symbol: Te # 142
    coordinates: [  0.574524413277789,  0.677075858712343,  0.559782968846458 ]
    mass: 127.600000
    reduced_to: 109
  - symbol: Te # 143
    coordinates: [  0.741191079944455,  0.677075858712343,  0.559782968846458 ]
    mass: 127.600000
    reduced_to: 109
  - symbol: Te # 144
    coordinates: [  0.907857746611122,  0.677075858712343,  0.559782968846458 ]
    mass: 127.600000
    reduced_to: 109
  - symbol: Te # 145
    coordinates: [  0.086606031681529,  0.213526299261410,  0.185221132154057 ]
    mass: 127.600000
    reduced_to: 145
  - symbol: Te # 146
    coordinates: [  0.253272698348196,  0.213526299261410,  0.185221132154057 ]
    mass: 127.600000
    reduced_to: 145
  - symbol: Te # 147
    coordinates: [  0.419939365014863,  0.213526299261410,  0.185221132154057 ]
    mass: 127.600000
    reduced_to: 145
  - symbol: Te # 148
    coordinates: [  0.586606031681529,  0.213526299261410,  0.185221132154057 ]
    mass: 127.600000
    reduced_to: 145
  - symbol: Te # 149
    coordinates: [  0.753272698348196,  0.213526299261410,  0.185221132154057 ]
    mass: 127.600000
    reduced_to: 145
  - symbol: Te # 150
    coordinates: [  0.919939365014863,  0.213526299261410,  0.185221132154057 ]
    mass: 127.600000
    reduced_to: 145
  - symbol: Te # 151
    coordinates: [  0.086606031681529,  0.546859632594744,  0.185221132154057 ]
    mass: 127.600000
    reduced_to: 145
  - symbol: Te # 152
    coordinates: [  0.253272698348196,  0.546859632594744,  0.185221132154057 ]
    mass: 127.600000
    reduced_to: 145
  - symbol: Te # 153
    coordinates: [  0.419939365014863,  0.546859632594744,  0.185221132154057 ]
    mass: 127.600000
    reduced_to: 145
  - symbol: Te # 154
    coordinates: [  0.586606031681529,  0.546859632594744,  0.185221132154057 ]
    mass: 127.600000
    reduced_to: 145
  - symbol: Te # 155
    coordinates: [  0.753272698348196,  0.546859632594744,  0.185221132154057 ]
    mass: 127.600000
    reduced_to: 145
  - symbol: Te # 156
    coordinates: [  0.919939365014863,  0.546859632594744,  0.185221132154057 ]
    mass: 127.600000
    reduced_to: 145
  - symbol: Te # 157
    coordinates: [  0.086606031681529,  0.880192965928077,  0.185221132154057 ]
    mass: 127.600000
    reduced_to: 145
  - symbol: Te # 158
    coordinates: [  0.253272698348196,  0.880192965928077,  0.185221132154057 ]
    mass: 127.600000
    reduced_to: 145