phonopy:
  version: "2.27.0"
  frequency_unit_conversion_factor: 15.633302
  symmetry_tolerance: 1.00000e-04

space_group:
  type: "Pnma"
  number: 62
  Hall_symbol: "-P 2ac 2n"

primitive_matrix:
- [ -0.000000000000000, -1.000000000000000, -0.000000000000000 ]
- [  1.000000000000000,  0.000000000000000,  0.000000000000000 ]
- [  0.000000000000000,  0.000000000000000,  1.000000000000000 ]

supercell_matrix:
- [   4,   0,   0 ]
- [   0,   3,   0 ]
- [   0,   0,   2 ]

primitive_cell:
  lattice:
  - [    -0.000000000000001,     8.587668257532140,    -0.000000000000005 ] # a
  - [    -5.744438925229844,     0.000000000000000,    -0.000000000000000 ] # b
  - [    -0.000000000000000,     0.000000000000002,    10.949135515495669 ] # c
  points:
  - symbol: Ba # 1
    coordinates: [  0.019605302680957,  0.750000000000002,  0.319683560130757 ]
    mass: 137.327000
  - symbol: Ba # 2
    coordinates: [  0.980394697319045,  0.250000000000002,  0.680316439869246 ]
    mass: 137.327000
  - symbol: Ba # 3
    coordinates: [  0.519605302680958,  0.750000000000002,  0.180316439869246 ]
    mass: 137.327000
  - symbol: Ba # 4
    coordinates: [  0.480394697319045,  0.250000000000002,  0.819683560130756 ]
    mass: 137.327000
  - symbol: Ba # 5
    coordinates: [  0.343441925932493,  0.250000000000002,  0.421456613832745 ]
    mass: 137.327000
  - symbol: Ba # 6
    coordinates: [  0.656558074067510,  0.750000000000002,  0.578543386167258 ]
    mass: 137.327000
  - symbol: Ba # 7
    coordinates: [  0.843441925932493,  0.250000000000002,  0.078543386167258 ]
    mass: 137.327000
  - symbol: Ba # 8
    coordinates: [  0.156558074067510,  0.750000000000002,  0.921456613832745 ]
    mass: 137.327000
  - symbol: Pb # 9
    coordinates: [  0.241165537470786,  0.750000000000002,  0.604305003899771 ]
    mass: 207.200000
  - symbol: Pb # 10
    coordinates: [  0.758834462529217,  0.250000000000002,  0.395694996100232 ]
    mass: 207.200000
  - symbol: Pb # 11
    coordinates: [  0.741165537470785,  0.750000000000001,  0.895694996100232 ]
    mass: 207.200000
  - symbol: Pb # 12
    coordinates: [  0.258834462529217,  0.250000000000002,  0.104305003899771 ]
    mass: 207.200000
  reciprocal_lattice: # without 2pi
  - [     0.000000000000000,     0.116446044492102,    -0.000000000000000 ] # a*
  - [    -0.174081405166996,    -0.000000000000000,    -0.000000000000000 ] # b*
  - [    -0.000000000000000,     0.000000000000000,     0.091331411378073 ] # c*

unit_cell:
  lattice:
  - [     5.744438925229844,    -0.000000000000000,     0.000000000000000 ] # a
  - [    -0.000000000000001,     8.587668257532140,    -0.000000000000005 ] # b
  - [    -0.000000000000000,     0.000000000000002,    10.949135515495669 ] # c
  points:
  - symbol: Ba # 1
    coordinates: [  0.249999999999999,  0.019605302680957,  0.319683560130757 ]
    mass: 137.327000
    reduced_to: 1
  - symbol: Ba # 2
    coordinates: [  0.749999999999998,  0.980394697319045,  0.680316439869246 ]
    mass: 137.327000
    reduced_to: 2
  - symbol: Ba # 3
    coordinates: [  0.249999999999998,  0.519605302680958,  0.180316439869246 ]
    mass: 137.327000
    reduced_to: 3
  - symbol: Ba # 4
    coordinates: [  0.749999999999998,  0.480394697319045,  0.819683560130756 ]
    mass: 137.327000
    reduced_to: 4
  - symbol: Ba # 5
    coordinates: [  0.749999999999998,  0.343441925932493,  0.421456613832745 ]
    mass: 137.327000
    reduced_to: 5
  - symbol: Ba # 6
    coordinates: [  0.249999999999998,  0.656558074067510,  0.578543386167258 ]
    mass: 137.327000
    reduced_to: 6
  - symbol: Ba # 7
    coordinates: [  0.749999999999998,  0.843441925932493,  0.078543386167258 ]
    mass: 137.327000
    reduced_to: 7
  - symbol: Ba # 8
    coordinates: [  0.249999999999998,  0.156558074067510,  0.921456613832745 ]
    mass: 137.327000
    reduced_to: 8
  - symbol: Pb # 9
    coordinates: [  0.249999999999998,  0.241165537470786,  0.604305003899771 ]
    mass: 207.200000
    reduced_to: 9
  - symbol: Pb # 10
    coordinates: [  0.749999999999998,  0.758834462529217,  0.395694996100232 ]
    mass: 207.200000
    reduced_to: 10
  - symbol: Pb # 11
    coordinates: [  0.249999999999999,  0.741165537470785,  0.895694996100232 ]
    mass: 207.200000
    reduced_to: 11
  - symbol: Pb # 12
    coordinates: [  0.749999999999998,  0.258834462529217,  0.104305003899771 ]
    mass: 207.200000
    reduced_to: 12

supercell:
  lattice:
  - [    22.977755700919378,    -0.000000000000001,     0.000000000000001 ] # a
  - [    -0.000000000000002,    25.763004772596421,    -0.000000000000014 ] # b
  - [    -0.000000000000001,     0.000000000000003,    21.898271030991339 ] # c
  points:
  - symbol: Ba # 1
    coordinates: [  0.062500000000000,  0.006535100893652,  0.159841780065379 ]
    mass: 137.327000
    reduced_to: 1
  - symbol: Ba # 2
    coordinates: [  0.312500000000000,  0.006535100893652,  0.159841780065379 ]
    mass: 137.327000
    reduced_to: 1
  - symbol: Ba # 3
    coordinates: [  0.562500000000000,  0.006535100893652,  0.159841780065379 ]
    mass: 137.327000
    reduced_to: 1
  - symbol: Ba # 4
    coordinates: [  0.812500000000000,  0.006535100893652,  0.159841780065379 ]
    mass: 137.327000
    reduced_to: 1
  - symbol: Ba # 5
    coordinates: [  0.062500000000000,  0.339868434226986,  0.159841780065379 ]
    mass: 137.327000
    reduced_to: 1
  - symbol: Ba # 6
    coordinates: [  0.312500000000000,  0.339868434226986,  0.159841780065379 ]
    mass: 137.327000
    reduced_to: 1
  - symbol: Ba # 7
    coordinates: [  0.562500000000000,  0.339868434226986,  0.159841780065379 ]
    mass: 137.327000
    reduced_to: 1
  - symbol: Ba # 8
    coordinates: [  0.812500000000000,  0.339868434226986,  0.159841780065379 ]
    mass: 137.327000
    reduced_to: 1
  - symbol: Ba # 9
    coordinates: [  0.062500000000000,  0.673201767560319,  0.159841780065379 ]
    mass: 137.327000
    reduced_to: 1
  - symbol: Ba # 10
    coordinates: [  0.312500000000000,  0.673201767560319,  0.159841780065379 ]
    mass: 137.327000
    reduced_to: 1
  - symbol: Ba # 11
    coordinates: [  0.562500000000000,  0.673201767560319,  0.159841780065379 ]
    mass: 137.327000
    reduced_to: 1
  - symbol: Ba # 12
    coordinates: [  0.812500000000000,  0.673201767560319,  0.159841780065379 ]
    mass: 137.327000
    reduced_to: 1
  - symbol: Ba # 13
    coordinates: [  0.062500000000000,  0.006535100893652,  0.659841780065379 ]
    mass: 137.327000
    reduced_to: 1
  - symbol: Ba # 14
    coordinates: [  0.312500000000000,  0.006535100893652,  0.659841780065379 ]
    mass: 137.327000
    reduced_to: 1
  - symbol: Ba # 15
    coordinates: [  0.562500000000000,  0.006535100893652,  0.659841780065379 ]
    mass: 137.327000
    reduced_to: 1
  - symbol: Ba # 16
    coordinates: [  0.812500000000000,  0.006535100893652,  0.659841780065379 ]
    mass: 137.327000
    reduced_to: 1
  - symbol: Ba # 17
    coordinates: [  0.062500000000000,  0.339868434226986,  0.659841780065379 ]
    mass: 137.327000
    reduced_to: 1
  - symbol: Ba # 18
    coordinates: [  0.312500000000000,  0.339868434226986,  0.659841780065379 ]
    mass: 137.327000
    reduced_to: 1
  - symbol: Ba # 19
    coordinates: [  0.562500000000000,  0.339868434226986,  0.659841780065379 ]
    mass: 137.327000
    reduced_to: 1
  - symbol: Ba # 20
    coordinates: [  0.812500000000000,  0.339868434226986,  0.659841780065379 ]
    mass: 137.327000
    reduced_to: 1
  - symbol: Ba # 21
    coordinates: [  0.062500000000000,  0.673201767560319,  0.659841780065379 ]
    mass: 137.327000
    reduced_to: 1
  - symbol: Ba # 22
    coordinates: [  0.312500000000000,  0.673201767560319,  0.659841780065379 ]
    mass: 137.327000
    reduced_to: 1
  - symbol: Ba # 23
    coordinates: [  0.562500000000000,  0.673201767560319,  0.659841780065379 ]
    mass: 137.327000
    reduced_to: 1
  - symbol: Ba # 24
    coordinates: [  0.812500000000000,  0.673201767560319,  0.659841780065379 ]
    mass: 137.327000
    reduced_to: 1
  - symbol: Ba # 25
    coordinates: [  0.187500000000000,  0.326798232439682,  0.340158219934623 ]
    mass: 137.327000
    reduced_to: 25
  - symbol: Ba # 26
    coordinates: [  0.437500000000000,  0.326798232439682,  0.340158219934623 ]
    mass: 137.327000
    reduced_to: 25
  - symbol: Ba # 27
    coordinates: [  0.687500000000000,  0.326798232439682,  0.340158219934623 ]
    mass: 137.327000
    reduced_to: 25
  - symbol: Ba # 28
    coordinates: [  0.937500000000000,  0.326798232439682,  0.340158219934623 ]
    mass: 137.327000
    reduced_to: 25
  - symbol: Ba # 29
    coordinates: [  0.187500000000000,  0.660131565773015,  0.340158219934623 ]
    mass: 137.327000
    reduced_to: 25
  - symbol: Ba # 30
    coordinates: [  0.437500000000000,  0.660131565773015,  0.340158219934623 ]
    mass: 137.327000
    reduced_to: 25
  - symbol: Ba # 31
    coordinates: [  0.687500000000000,  0.660131565773015,  0.340158219934623 ]
    mass: 137.327000
    reduced_to: 25
  - symbol: Ba # 32
    coordinates: [  0.937500000000000,  0.660131565773015,  0.340158219934623 ]
    mass: 137.327000
    reduced_to: 25
  - symbol: Ba # 33
    coordinates: [  0.187500000000000,  0.993464899106348,  0.340158219934623 ]
    mass: 137.327000
    reduced_to: 25
  - symbol: Ba # 34
    coordinates: [  0.437500000000000,  0.993464899106348,  0.340158219934623 ]
    mass: 137.327000
    reduced_to: 25
  - symbol: Ba # 35
    coordinates: [  0.687500000000000,  0.993464899106348,  0.340158219934623 ]
    mass: 137.327000
    reduced_to: 25
  - symbol: Ba # 36
    coordinates: [  0.937500000000000,  0.993464899106348,  0.340158219934623 ]
    mass: 137.327000
    reduced_to: 25
  - symbol: Ba # 37
    coordinates: [  0.187500000000000,  0.326798232439682,  0.840158219934623 ]
    mass: 137.327000
    reduced_to: 25
  - symbol: Ba # 38
    coordinates: [  0.437500000000000,  0.326798232439682,  0.840158219934623 ]
    mass: 137.327000
    reduced_to: 25
  - symbol: Ba # 39
    coordinates: [  0.687500000000000,  0.326798232439682,  0.840158219934623 ]
    mass: 137.327000
    reduced_to: 25
  - symbol: Ba # 40
    coordinates: [  0.937500000000000,  0.326798232439682,  0.840158219934623 ]
    mass: 137.327000
    reduced_to: 25
  - symbol: Ba # 41
    coordinates: [  0.187500000000000,  0.660131565773015,  0.840158219934623 ]
    mass: 137.327000
    reduced_to: 25
  - symbol: Ba # 42
    coordinates: [  0.437500000000000,  0.660131565773015,  0.840158219934623 ]
    mass: 137.327000
    reduced_to: 25
  - symbol: Ba # 43
    coordinates: [  0.687500000000000,  0.660131565773015,  0.840158219934623 ]
    mass: 137.327000
    reduced_to: 25
  - symbol: Ba # 44
    coordinates: [  0.937500000000000,  0.660131565773015,  0.840158219934623 ]
    mass: 137.327000
    reduced_to: 25
  - symbol: Ba # 45
    coordinates: [  0.187500000000000,  0.993464899106348,  0.840158219934623 ]
    mass: 137.327000
    reduced_to: 25
  - symbol: Ba # 46
    coordinates: [  0.437500000000000,  0.993464899106348,  0.840158219934623 ]
    mass: 137.327000
    reduced_to: 25
  - symbol: Ba # 47
    coordinates: [  0.687500000000000,  0.993464899106348,  0.840158219934623 ]
    mass: 137.327000
    reduced_to: 25
  - symbol: Ba # 48
    coordinates: [  0.937500000000000,  0.993464899106348,  0.840158219934623 ]
    mass: 137.327000
    reduced_to: 25
  - symbol: Ba # 49
    coordinates: [  0.062500000000000,  0.173201767560319,  0.090158219934623 ]
    mass: 137.327000
    reduced_to: 49
  - symbol: Ba # 50
    coordinates: [  0.312500000000000,  0.173201767560319,  0.090158219934623 ]
    mass: 137.327000
    reduced_to: 49
  - symbol: Ba # 51
    coordinates: [  0.562500000000000,  0.173201767560319,  0.090158219934623 ]
    mass: 137.327000
    reduced_to: 49
  - symbol: Ba # 52
    coordinates: [  0.812500000000000,  0.173201767560319,  0.090158219934623 ]
    mass: 137.327000
    reduced_to: 49
  - symbol: Ba # 53
    coordinates: [  0.062500000000000,  0.506535100893653,  0.090158219934623 ]
    mass: 137.327000
    reduced_to: 49
  - symbol: Ba # 54
    coordinates: [  0.312500000000000,  0.506535100893653,  0.090158219934623 ]
    mass: 137.327000
    reduced_to: 49
  - symbol: Ba # 55
    coordinates: [  0.562500000000000,  0.506535100893653,  0.090158219934623 ]
    mass: 137.327000
    reduced_to: 49
  - symbol: Ba # 56
    coordinates: [  0.812500000000000,  0.506535100893653,  0.090158219934623 ]
    mass: 137.327000
    reduced_to: 49
  - symbol: Ba # 57
    coordinates: [  0.062500000000000,  0.839868434226986,  0.090158219934623 ]
    mass: 137.327000
    reduced_to: 49
  - symbol: Ba # 58
    coordinates: [  0.312500000000000,  0.839868434226986,  0.090158219934623 ]
    mass: 137.327000
    reduced_to: 49
  - symbol: Ba # 59
    coordinates: [  0.562500000000000,  0.839868434226986,  0.090158219934623 ]
    mass: 137.327000
    reduced_to: 49
  - symbol: Ba # 60
    coordinates: [  0.812500000000000,  0.839868434226986,  0.090158219934623 ]
    mass: 137.327000
    reduced_to: 49
  - symbol: Ba # 61
    coordinates: [  0.062500000000000,  0.173201767560319,  0.590158219934623 ]
    mass: 137.327000
    reduced_to: 49
  - symbol: Ba # 62
    coordinates: [  0.312500000000000,  0.173201767560319,  0.590158219934623 ]
    mass: 137.327000
    reduced_to: 49
  - symbol: Ba # 63
    coordinates: [  0.562500000000000,  0.173201767560319,  0.590158219934623 ]
    mass: 137.327000
    reduced_to: 49
  - symbol: Ba # 64
    coordinates: [  0.812500000000000,  0.173201767560319,  0.590158219934623 ]
    mass: 137.327000
    reduced_to: 49
  - symbol: Ba # 65
    coordinates: [  0.062500000000000,  0.506535100893653,  0.590158219934623 ]
    mass: 137.327000
    reduced_to: 49
  - symbol: Ba # 66
    coordinates: [  0.312500000000000,  0.506535100893653,  0.590158219934623 ]
    mass: 137.327000
    reduced_to: 49
  - symbol: Ba # 67
    coordinates: [  0.562500000000000,  0.506535100893653,  0.590158219934623 ]
    mass: 137.327000
    reduced_to: 49
  - symbol: Ba # 68
    coordinates: [  0.812500000000000,  0.506535100893653,  0.590158219934623 ]
    mass: 137.327000
    reduced_to: 49
  - symbol: Ba # 69
    coordinates: [  0.062500000000000,  0.839868434226986,  0.590158219934623 ]
    mass: 137.327000
    reduced_to: 49
  - symbol: Ba # 70
    coordinates: [  0.312500000000000,  0.839868434226986,  0.590158219934623 ]
    mass: 137.327000
    reduced_to: 49
  - symbol: Ba # 71
    coordinates: [  0.562500000000000,  0.839868434226986,  0.590158219934623 ]
    mass: 137.327000
    reduced_to: 49
  - symbol: Ba # 72
    coordinates: [  0.812500000000000,  0.839868434226986,  0.590158219934623 ]
    mass: 137.327000
    reduced_to: 49
  - symbol: Ba # 73
    coordinates: [  0.187500000000000,  0.160131565773015,  0.409841780065378 ]
    mass: 137.327000
    reduced_to: 73
  - symbol: Ba # 74
    coordinates: [  0.437500000000000,  0.160131565773015,  0.409841780065378 ]
    mass: 137.327000
    reduced_to: 73
  - symbol: Ba # 75
    coordinates: [  0.687500000000000,  0.160131565773015,  0.409841780065378 ]
    mass: 137.327000
    reduced_to: 73
  - symbol: Ba # 76
    coordinates: [  0.937500000000000,  0.160131565773015,  0.409841780065378 ]
    mass: 137.327000
    reduced_to: 73
  - symbol: Ba # 77
    coordinates: [  0.187500000000000,  0.493464899106348,  0.409841780065378 ]
    mass: 137.327000
    reduced_to: 73
  - symbol: Ba # 78
    coordinates: [  0.437500000000000,  0.493464899106348,  0.409841780065378 ]
    mass: 137.327000
    reduced_to: 73
  - symbol: Ba # 79
    coordinates: [  0.687500000000000,  0.493464899106348,  0.409841780065378 ]
    mass: 137.327000
    reduced_to: 73
  - symbol: Ba # 80
    coordinates: [  0.937500000000000,  0.493464899106348,  0.409841780065378 ]
    mass: 137.327000
    reduced_to: 73
  - symbol: Ba # 81
    coordinates: [  0.187500000000000,  0.826798232439682,  0.409841780065378 ]
    mass: 137.327000
    reduced_to: 73
  - symbol: Ba # 82
    coordinates: [  0.437500000000000,  0.826798232439682,  0.409841780065378 ]
    mass: 137.327000
    reduced_to: 73
  - symbol: Ba # 83
    coordinates: [  0.687500000000000,  0.826798232439682,  0.409841780065378 ]
    mass: 137.327000
    reduced_to: 73
  - symbol: Ba # 84
    coordinates: [  0.937500000000000,  0.826798232439682,  0.409841780065378 ]
    mass: 137.327000
    reduced_to: 73
  - symbol: Ba # 85
    coordinates: [  0.187500000000000,  0.160131565773015,  0.909841780065378 ]
    mass: 137.327000
    reduced_to: 73
  - symbol: Ba # 86
    coordinates: [  0.437500000000000,  0.160131565773015,  0.909841780065378 ]
    mass: 137.327000
    reduced_to: 73
  - symbol: Ba # 87
    coordinates: [  0.687500000000000,  0.160131565773015,  0.909841780065378 ]
    mass: 137.327000
    reduced_to: 73
  - symbol: Ba # 88
    coordinates: [  0.937500000000000,  0.160131565773015,  0.909841780065378 ]
    mass: 137.327000
    reduced_to: 73
  - symbol: Ba # 89
    coordinates: [  0.187500000000000,  0.493464899106348,  0.909841780065378 ]
    mass: 137.327000
    reduced_to: 73
  - symbol: Ba # 90
    coordinates: [  0.437500000000000,  0.493464899106348,  0.909841780065378 ]
    mass: 137.327000
    reduced_to: 73
  - symbol: Ba # 91
    coordinates: [  0.687500000000000,  0.493464899106348,  0.909841780065378 ]
    mass: 137.327000
    reduced_to: 73
  - symbol: Ba # 92
    coordinates: [  0.937500000000000,  0.493464899106348,  0.909841780065378 ]
    mass: 137.327000
    reduced_to: 73
  - symbol: Ba # 93
    coordinates: [  0.187500000000000,  0.826798232439682,  0.909841780065378 ]
    mass: 137.327000
    reduced_to: 73
  - symbol: Ba # 94
    coordinates: [  0.437500000000000,  0.826798232439682,  0.909841780065378 ]
    mass: 137.327000
    reduced_to: 73
  - symbol: Ba # 95
    coordinates: [  0.687500000000000,  0.826798232439682,  0.909841780065378 ]
    mass: 137.327000
    reduced_to: 73
  - symbol: Ba # 96
    coordinates: [  0.937500000000000,  0.826798232439682,  0.909841780065378 ]
    mass: 137.327000
    reduced_to: 73
  - symbol: Ba # 97
    coordinates: [  0.187500000000000,  0.114480641977498,  0.210728306916372 ]
    mass: 137.327000
    reduced_to: 97
  - symbol: Ba # 98
    coordinates: [  0.437500000000000,  0.114480641977498,  0.210728306916372 ]
    mass: 137.327000
    reduced_to: 97
  - symbol: Ba # 99
    coordinates: [  0.687500000000000,  0.114480641977498,  0.210728306916372 ]
    mass: 137.327000
    reduced_to: 97
  - symbol: Ba # 100
    coordinates: [  0.937500000000000,  0.114480641977498,  0.210728306916372 ]
    mass: 137.327000
    reduced_to: 97
  - symbol: Ba # 101
    coordinates: [  0.187500000000000,  0.447813975310831,  0.210728306916372 ]
    mass: 137.327000
    reduced_to: 97
  - symbol: Ba # 102
    coordinates: [  0.437500000000000,  0.447813975310831,  0.210728306916372 ]
    mass: 137.327000
    reduced_to: 97
  - symbol: Ba # 103
    coordinates: [  0.687500000000000,  0.447813975310831,  0.210728306916372 ]
    mass: 137.327000
    reduced_to: 97
  - symbol: Ba # 104
    coordinates: [  0.937500000000000,  0.447813975310831,  0.210728306916372 ]
    mass: 137.327000
    reduced_to: 97
  - symbol: Ba # 105
    coordinates: [  0.187500000000000,  0.781147308644164,  0.210728306916372 ]
    mass: 137.327000
    reduced_to: 97
  - symbol: Ba # 106
    coordinates: [  0.437500000000000,  0.781147308644164,  0.210728306916372 ]
    mass: 137.327000
    reduced_to: 97
  - symbol: Ba # 107
    coordinates: [  0.687500000000000,  0.781147308644164,  0.210728306916372 ]
    mass: 137.327000
    reduced_to: 97
  - symbol: Ba # 108
    coordinates: [  0.937500000000000,  0.781147308644164,  0.210728306916372 ]
    mass: 137.327000
    reduced_to: 97
  - symbol: Ba # 109
    coordinates: [  0.187500000000000,  0.114480641977498,  0.710728306916372 ]
    mass: 137.327000
    reduced_to: 97
  - symbol: Ba # 110
    coordinates: [  0.437500000000000,  0.114480641977498,  0.710728306916372 ]
    mass: 137.327000
    reduced_to: 97
  - symbol: Ba # 111
    coordinates: [  0.687500000000000,  0.114480641977498,  0.710728306916372 ]
    mass: 137.327000
    reduced_to: 97
  - symbol: Ba # 112
    coordinates: [  0.937500000000000,  0.114480641977498,  0.710728306916372 ]
    mass: 137.327000
    reduced_to: 97
  - symbol: Ba # 113
    coordinates: [  0.187500000000000,  0.447813975310831,  0.710728306916372 ]
    mass: 137.327000
    reduced_to: 97
  - symbol: Ba # 114
    coordinates: [  0.437500000000000,  0.447813975310831,  0.710728306916372 ]
    mass: 137.327000
    reduced_to: 97
  - symbol: Ba # 115
    coordinates: [  0.687500000000000,  0.447813975310831,  0.710728306916372 ]
    mass: 137.327000
    reduced_to: 97
  - symbol: Ba # 116
    coordinates: [  0.937500000000000,  0.447813975310831,  0.710728306916372 ]
    mass: 137.327000
    reduced_to: 97
  - symbol: Ba # 117
    coordinates: [  0.187500000000000,  0.781147308644164,  0.710728306916372 ]
    mass: 137.327000
    reduced_to: 97
  - symbol: Ba # 118
    coordinates: [  0.437500000000000,  0.781147308644164,  0.710728306916372 ]
    mass: 137.327000
    reduced_to: 97
  - symbol: Ba # 119
    coordinates: [  0.687500000000000,  0.781147308644164,  0.710728306916372 ]
    mass: 137.327000
    reduced_to: 97
  - symbol: Ba # 120
    coordinates: [  0.937500000000000,  0.781147308644164,  0.710728306916372 ]
    mass: 137.327000
    reduced_to: 97
  - symbol: Ba # 121
    coordinates: [  0.062500000000000,  0.218852691355837,  0.289271693083629 ]
    mass: 137.327000
    reduced_to: 121
  - symbol: Ba # 122
    coordinates: [  0.312500000000000,  0.218852691355837,  0.289271693083629 ]
    mass: 137.327000
    reduced_to: 121
  - symbol: Ba # 123
    coordinates: [  0.562500000000000,  0.218852691355837,  0.289271693083629 ]
    mass: 137.327000
    reduced_to: 121
  - symbol: Ba # 124
    coordinates: [  0.812500000000000,  0.218852691355837,  0.289271693083629 ]
    mass: 137.327000
    reduced_to: 121
  - symbol: Ba # 125
    coordinates: [  0.062500000000000,  0.552186024689170,  0.289271693083629 ]
    mass: 137.327000
    reduced_to: 121
  - symbol: Ba # 126
    coordinates: [  0.312500000000000,  0.552186024689170,  0.289271693083629 ]
    mass: 137.327000
    reduced_to: 121
  - symbol: Ba # 127
    coordinates: [  0.562500000000000,  0.552186024689170,  0.289271693083629 ]
    mass: 137.327000
    reduced_to: 121
  - symbol: Ba # 128
    coordinates: [  0.812500000000000,  0.552186024689170,  0.289271693083629 ]
    mass: 137.327000
    reduced_to: 121
  - symbol: Ba # 129
    coordinates: [  0.062500000000000,  0.885519358022503,  0.289271693083629 ]
    mass: 137.327000
    reduced_to: 121
  - symbol: Ba # 130
    coordinates: [  0.312500000000000,  0.885519358022503,  0.289271693083629 ]
    mass: 137.327000
    reduced_to: 121
  - symbol: Ba # 131
    coordinates: [  0.562500000000000,  0.885519358022503,  0.289271693083629 ]
    mass: 137.327000
    reduced_to: 121
  - symbol: Ba # 132
    coordinates: [  0.812500000000000,  0.885519358022503,  0.289271693083629 ]
    mass: 137.327000
    reduced_to: 121
  - symbol: Ba # 133
    coordinates: [  0.062500000000000,  0.218852691355837,  0.789271693083629 ]
    mass: 137.327000
    reduced_to: 121
  - symbol: Ba # 134
    coordinates: [  0.312500000000000,  0.218852691355837,  0.789271693083629 ]
    mass: 137.327000
    reduced_to: 121
  - symbol: Ba # 135
    coordinates: [  0.562500000000000,  0.218852691355837,  0.789271693083629 ]
    mass: 137.327000
    reduced_to: 121
  - symbol: Ba # 136
    coordinates: [  0.812500000000000,  0.218852691355837,  0.789271693083629 ]
    mass: 137.327000
    reduced_to: 121
  - symbol: Ba # 137
    coordinates: [  0.062500000000000,  0.552186024689170,  0.789271693083629 ]
    mass: 137.327000
    reduced_to: 121
  - symbol: Ba # 138
    coordinates: [  0.312500000000000,  0.552186024689170,  0.789271693083629 ]
    mass: 137.327000
    reduced_to: 121
  - symbol: Ba # 139
    coordinates: [  0.562500000000000,  0.552186024689170,  0.789271693083629 ]
    mass: 137.327000
    reduced_to: 121
  - symbol: Ba # 140
    coordinates: [  0.812500000000000,  0.552186024689170,  0.789271693083629 ]
    mass: 137.327000
    reduced_to: 121
  - symbol: Ba # 141
    coordinates: [  0.062500000000000,  0.885519358022503,  0.789271693083629 ]
    mass: 137.327000
    reduced_to: 121
  - symbol: Ba # 142
    coordinates: [  0.312500000000000,  0.885519358022503,  0.789271693083629 ]
    mass: 137.327000
    reduced_to: 121
  - symbol: Ba # 143
    coordinates: [  0.562500000000000,  0.885519358022503,  0.789271693083629 ]
    mass: 137.327000
    reduced_to: 121
  - symbol: Ba # 144
    coordinates: [  0.812500000000000,  0.885519358022503,  0.789271693083629 ]
    mass: 137.327000
    reduced_to: 121
  - symbol: Ba # 145
    coordinates: [  0.187500000000000,  0.281147308644164,  0.039271693083629 ]
    mass: 137.327000
    reduced_to: 145
  - symbol: Ba # 146
    coordinates: [  0.437500000000000,  0.281147308644164,  0.039271693083629 ]
    mass: 137.327000
    reduced_to: 145
  - symbol: Ba # 147
    coordinates: [  0.687500000000000,  0.281147308644164,  0.039271693083629 ]
    mass: 137.327000
    reduced_to: 145
  - symbol: Ba # 148
    coordinates: [  0.937500000000000,  0.281147308644164,  0.039271693083629 ]
    mass: 137.327000
    reduced_to: 145
  - symbol: Ba # 149
    coordinates: [  0.187500000000000,  0.614480641977498,  0.039271693083629 ]
    mass: 137.327000
    reduced_to: 145
  - symbol: Ba # 150
    coordinates: [  0.437500000000000,  0.614480641977498,  0.039271693083629 ]
    mass: 137.327000
    reduced_to: 145
  - symbol: Ba # 151
    coordinates: [  0.687500000000000,  0.614480641977498,  0.039271693083629 ]
    mass: 137.327000
    reduced_to: 145
  - symbol: Ba # 152
    coordinates: [  0.937500000000000,  0.614480641977498,  0.039271693083629 ]
    mass: 137.327000
    reduced_to: 145
  - symbol: Ba # 153
    coordinates: [  0.187500000000000,  0.947813975310831,  0.039271693083629 ]
    mass: 137.327000
    reduced_to: 145
  - symbol: Ba # 154
    coordinates: [  0.437500000000000,  0.947813975310831,  0.039271693083629 ]
    mass: 137.327000
    reduced_to: 145
  - symbol: Ba # 155
    coordinates: [  0.687500000000000,  0.947813975310831,  0.039271693083629 ]
    mass: 137.327000
    reduced_to: 145
  - symbol: Ba # 156
    coordinates: [  0.937500000000000,  0.947813975310831,  0.039271693083629 ]
    mass: 137.327000
    reduced_to: 145
  - symbol: Ba # 157
    coordinates: [  0.187500000000000,  0.281147308644164,  0.539271693083629 ]
    mass: 137.327000
    reduced_to: 145
  - symbol: Ba # 158
    coordinates: [  0.437500000000000,  0.281147308644164,  0.539271693083629 ]
    mass: 137.327000
    reduced_to: 145
  - symbol: Ba # 159
    coordinates: [  0.687500000000000,  0.281147308644164,  0.539271693083629 ]
    mass: 137.327000
    reduced_to: 145
  - symbol: Ba # 160
    coordinates: [  0.937500000000000,  0.281147308644164,  0.539271693083629 ]
    mass: 137.327000
    reduced_to: 145
  - symbol: Ba # 161
    coordinates: [  0.187500000000000,  0.614480641977498,  0.539271693083629 ]
    mass: 137.327000
    reduced_to: 145
  - symbol: Ba # 162
    coordinates: [  0.437500000000000,  0.614480641977498,  0.539271693083629 ]
    mass: 137.327000
    reduced_to: 145
  - symbol: Ba # 163
    coordinates: [  0.687500000000000,  0.614480641977498,  0.539271693083629 ]
    mass: 137.327000
    reduced_to: 145
  - symbol: Ba # 164
    coordinates: [  0.937500000000000,  0.614480641977498,  0.539271693083629 ]
    mass: 137.327000
    reduced_to: 145
  - symbol: Ba # 165
    coordinates: [  0.187500000000000,  0.947813975310831,  0.539271693083629 ]
    mass: 137.327000
    reduced_to: 145
  - symbol: Ba # 166
    coordinates: [  0.437500000000000,  0.947813975310831,  0.539271693083629 ]
    mass: 137.327000
    reduced_to: 145
  - symbol: Ba # 167
    coordinates: [  0.687500000000000,  0.947813975310831,  0.539271693083629 ]
    mass: 137.327000
    reduced_to: 145
  - symbol: Ba # 168
    coordinates: [  0.937500000000000,  0.947813975310831,  0.539271693083629 ]
    mass: 137.327000
    reduced_to: 145
  - symbol: Ba # 169
    coordinates: [  0.062500000000000,  0.052186024689170,  0.460728306916372 ]
    mass: 137.327000
    reduced_to: 169
  - symbol: Ba # 170
    coordinates: [  0.312500000000000,  0.052186024689170,  0.460728306916372 ]
    mass: 137.327000
    reduced_to: 169
  - symbol: Ba # 171
    coordinates: [  0.562500000000000,  0.052186024689170,  0.460728306916372 ]
    mass: 137.327000
    reduced_to: 169
  - symbol: Ba # 172
    coordinates: [  0.812500000000000,  0.052186024689170,  0.460728306916372 ]
    mass: 137.327000
    reduced_to: 169
  - symbol: Ba # 173
    coordinates: [  0.062500000000000,  0.385519358022503,  0.460728306916372 ]
    mass: 137.327000
    reduced_to: 169
  - symbol: Ba # 174
    coordinates: [  0.312500000000000,  0.385519358022503,  0.460728306916372 ]
    mass: 137.327000
    reduced_to: 169
  - symbol: Ba # 175
    coordinates: [  0.562500000000000,  0.385519358022503,  0.460728306916372 ]
    mass: 137.327000
    reduced_to: 169
  - symbol: Ba # 176
    coordinates: [  0.812500000000000,  0.385519358022503,  0.460728306916372 ]
    mass: 137.327000
    reduced_to: 169
  - symbol: Ba # 177
    coordinates: [  0.062500000000000,  0.718852691355836,  0.460728306916372 ]
    mass: 137.327000
    reduced_to: 169
  - symbol: Ba # 178
    coordinates: [  0.312500000000000,  0.718852691355836,  0.460728306916372 ]
    mass: 137.327000
    reduced_to: 169
  - symbol: Ba # 179
    coordinates: [  0.562500000000000,  0.718852691355836,  0.460728306916372 ]
    mass: 137.327000
    reduced_to: 169
  - symbol: Ba # 180
    coordinates: [  0.812500000000000,  0.718852691355836,  0.460728306916372 ]
    mass: 137.327000
    reduced_to: 169