phonopy:
  version: "2.21.0"
  frequency_unit_conversion_factor: 15.633302
  symmetry_tolerance: 1.00000e-04

space_group:
  type: "P6_3/mmc"
  number: 194
  Hall_symbol: "-P 6c 2c"

primitive_matrix:
- [  1.000000000000000, -1.000000000000000,  0.000000000000000 ]
- [  1.000000000000000,  0.000000000000000,  0.000000000000000 ]
- [  0.000000000000000,  0.000000000000000,  1.000000000000000 ]

supercell_matrix:
- [   5,   5,   0 ]
- [  -3,   3,   0 ]
- [   0,   0,   3 ]

primitive_cell:
  lattice:
  - [     4.892029864221946,    -0.000000000000001,     0.000000000000000 ] # a
  - [    -2.446014932110973,     4.236622138488342,     0.000000000000000 ] # b
  - [     0.000000000000000,     0.000000000000000,     9.402559697641395 ] # c
  points:
  - symbol: Ba # 1
    coordinates: [  0.000000000000000,  0.000000000000000,  0.000000000000000 ]
    mass: 137.327000
  - symbol: Ba # 2
    coordinates: [  0.000000000000000,  0.000000000000000,  0.500000000000000 ]
    mass: 137.327000
  - symbol: Ag # 3
    coordinates: [  0.333333333333336,  0.666666666666671,  0.750000000000000 ]
    mass: 107.868200
  - symbol: Ag # 4
    coordinates: [  0.666666666666664,  0.333333333333329,  0.250000000000000 ]
    mass: 107.868200
  - symbol: Sb # 5
    coordinates: [  0.333333333333336,  0.666666666666671,  0.250000000000000 ]
    mass: 121.760000
  - symbol: Sb # 6
    coordinates: [  0.666666666666664,  0.333333333333329,  0.750000000000000 ]
    mass: 121.760000
  reciprocal_lattice: # without 2pi
  - [     0.204414124147839,     0.118018549602916,     0.000000000000000 ] # a*
  - [     0.000000000000000,     0.236037099205833,     0.000000000000000 ] # b*
  - [     0.000000000000000,     0.000000000000000,     0.106354017645945 ] # c*

unit_cell:
  lattice:
  - [     2.446014932110973,    -4.236622138488342,    -0.000000000000000 ] # a
  - [     2.446014932110973,     4.236622138488342,     0.000000000000000 ] # b
  - [    -0.000000000000000,    -0.000000000000000,     9.402559697641395 ] # c
  points:
  - symbol: Ba # 1
    coordinates: [  0.000000000000000,  0.000000000000000, -0.000000000000000 ]
    mass: 137.327000
    reduced_to: 1
  - symbol: Ba # 2
    coordinates: [  0.000000000000000,  0.000000000000000,  0.500000000000000 ]
    mass: 137.327000
    reduced_to: 2
  - symbol: Ag # 3
    coordinates: [  0.666666666666664,  0.333333333333336,  0.750000000000000 ]
    mass: 107.868200
    reduced_to: 3
  - symbol: Ag # 4
    coordinates: [  0.333333333333336,  0.666666666666664,  0.250000000000000 ]
    mass: 107.868200
    reduced_to: 4
  - symbol: Sb # 5
    coordinates: [  0.666666666666664,  0.333333333333336,  0.250000000000000 ]
    mass: 121.760000
    reduced_to: 5
  - symbol: Sb # 6
    coordinates: [  0.333333333333336,  0.666666666666664,  0.750000000000000 ]
    mass: 121.760000
    reduced_to: 6

supercell:
  lattice:
  - [     4.892029864221946,   -33.892977107906738,     0.000000000000000 ] # a
  - [    19.568119456887782,    -8.473244276976686,     0.000000000000000 ] # b
  - [     0.000000000000000,     0.000000000000000,    28.207679092924188 ] # c
  points:
  - symbol: Ba # 1
    coordinates: [  0.000000000000000,  0.000000000000000,  0.000000000000000 ]
    mass: 137.327000
    reduced_to: 1
  - symbol: Ba # 2
    coordinates: [  0.100000000000000,  0.100000000000000,  0.000000000000000 ]
    mass: 137.327000
    reduced_to: 1
  - symbol: Ba # 3
    coordinates: [  0.200000000000000,  0.200000000000000,  0.000000000000000 ]
    mass: 137.327000
    reduced_to: 1
  - symbol: Ba # 4
    coordinates: [  0.300000000000000,  0.300000000000000,  0.000000000000000 ]
    mass: 137.327000
    reduced_to: 1
  - symbol: Ba # 5
    coordinates: [  0.400000000000000,  0.400000000000000,  0.000000000000000 ]
    mass: 137.327000
    reduced_to: 1
  - symbol: Ba # 6
    coordinates: [  0.500000000000000,  0.500000000000000,  0.000000000000000 ]
    mass: 137.327000
    reduced_to: 1
  - symbol: Ba # 7
    coordinates: [  0.600000000000000,  0.600000000000000,  0.000000000000000 ]
    mass: 137.327000
    reduced_to: 1
  - symbol: Ba # 8
    coordinates: [  0.700000000000000,  0.700000000000000,  0.000000000000000 ]
    mass: 137.327000
    reduced_to: 1
  - symbol: Ba # 9
    coordinates: [  0.800000000000000,  0.800000000000000,  0.000000000000000 ]
    mass: 137.327000
    reduced_to: 1
  - symbol: Ba # 10
    coordinates: [  0.900000000000000,  0.900000000000000,  0.000000000000000 ]
    mass: 137.327000
    reduced_to: 1
  - symbol: Ba # 11
    coordinates: [  0.833333333333333,  0.166666666666667,  0.000000000000000 ]
    mass: 137.327000
    reduced_to: 1
  - symbol: Ba # 12
    coordinates: [  0.933333333333333,  0.266666666666667,  0.000000000000000 ]
    mass: 137.327000
    reduced_to: 1
  - symbol: Ba # 13
    coordinates: [  0.033333333333333,  0.366666666666667,  0.000000000000000 ]
    mass: 137.327000
    reduced_to: 1
  - symbol: Ba # 14
    coordinates: [  0.133333333333333,  0.466666666666667,  0.000000000000000 ]
    mass: 137.327000
    reduced_to: 1
  - symbol: Ba # 15
    coordinates: [  0.233333333333333,  0.566666666666667,  0.000000000000000 ]
    mass: 137.327000
    reduced_to: 1
  - symbol: Ba # 16
    coordinates: [  0.333333333333333,  0.666666666666667,  0.000000000000000 ]
    mass: 137.327000
    reduced_to: 1
  - symbol: Ba # 17
    coordinates: [  0.433333333333333,  0.766666666666667,  0.000000000000000 ]
    mass: 137.327000
    reduced_to: 1
  - symbol: Ba # 18
    coordinates: [  0.533333333333333,  0.866666666666667,  0.000000000000000 ]
    mass: 137.327000
    reduced_to: 1
  - symbol: Ba # 19
    coordinates: [  0.633333333333333,  0.966666666666667,  0.000000000000000 ]
    mass: 137.327000
    reduced_to: 1
  - symbol: Ba # 20
    coordinates: [  0.733333333333333,  0.066666666666667,  0.000000000000000 ]
    mass: 137.327000
    reduced_to: 1
  - symbol: Ba # 21
    coordinates: [  0.666666666666667,  0.333333333333333,  0.000000000000000 ]
    mass: 137.327000
    reduced_to: 1
  - symbol: Ba # 22
    coordinates: [  0.766666666666667,  0.433333333333333,  0.000000000000000 ]
    mass: 137.327000
    reduced_to: 1
  - symbol: Ba # 23
    coordinates: [  0.866666666666667,  0.533333333333333,  0.000000000000000 ]
    mass: 137.327000
    reduced_to: 1
  - symbol: Ba # 24
    coordinates: [  0.966666666666667,  0.633333333333333,  0.000000000000000 ]
    mass: 137.327000
    reduced_to: 1
  - symbol: Ba # 25
    coordinates: [  0.066666666666667,  0.733333333333333,  0.000000000000000 ]
    mass: 137.327000
    reduced_to: 1
  - symbol: Ba # 26
    coordinates: [  0.166666666666667,  0.833333333333333,  0.000000000000000 ]
    mass: 137.327000
    reduced_to: 1
  - symbol: Ba # 27
    coordinates: [  0.266666666666667,  0.933333333333333,  0.000000000000000 ]
    mass: 137.327000
    reduced_to: 1
  - symbol: Ba # 28
    coordinates: [  0.366666666666667,  0.033333333333333,  0.000000000000000 ]
    mass: 137.327000
    reduced_to: 1
  - symbol: Ba # 29
    coordinates: [  0.466666666666667,  0.133333333333333,  0.000000000000000 ]
    mass: 137.327000
    reduced_to: 1
  - symbol: Ba # 30
    coordinates: [  0.566666666666667,  0.233333333333333,  0.000000000000000 ]
    mass: 137.327000
    reduced_to: 1
  - symbol: Ba # 31
    coordinates: [  0.000000000000000,  0.000000000000000,  0.333333333333333 ]
    mass: 137.327000
    reduced_to: 1
  - symbol: Ba # 32
    coordinates: [  0.100000000000000,  0.100000000000000,  0.333333333333333 ]
    mass: 137.327000
    reduced_to: 1
  - symbol: Ba # 33
    coordinates: [  0.200000000000000,  0.200000000000000,  0.333333333333333 ]
    mass: 137.327000
    reduced_to: 1
  - symbol: Ba # 34
    coordinates: [  0.300000000000000,  0.300000000000000,  0.333333333333333 ]
    mass: 137.327000
    reduced_to: 1
  - symbol: Ba # 35
    coordinates: [  0.400000000000000,  0.400000000000000,  0.333333333333333 ]
    mass: 137.327000
    reduced_to: 1
  - symbol: Ba # 36
    coordinates: [  0.500000000000000,  0.500000000000000,  0.333333333333333 ]
    mass: 137.327000
    reduced_to: 1
  - symbol: Ba # 37
    coordinates: [  0.600000000000000,  0.600000000000000,  0.333333333333333 ]
    mass: 137.327000
    reduced_to: 1
  - symbol: Ba # 38
    coordinates: [  0.700000000000000,  0.700000000000000,  0.333333333333333 ]
    mass: 137.327000
    reduced_to: 1
  - symbol: Ba # 39
    coordinates: [  0.800000000000000,  0.800000000000000,  0.333333333333333 ]
    mass: 137.327000
    reduced_to: 1
  - symbol: Ba # 40
    coordinates: [  0.900000000000000,  0.900000000000000,  0.333333333333333 ]
    mass: 137.327000
    reduced_to: 1
  - symbol: Ba # 41
    coordinates: [  0.833333333333333,  0.166666666666667,  0.333333333333333 ]
    mass: 137.327000
    reduced_to: 1
  - symbol: Ba # 42
    coordinates: [  0.933333333333333,  0.266666666666667,  0.333333333333333 ]
    mass: 137.327000
    reduced_to: 1
  - symbol: Ba # 43
    coordinates: [  0.033333333333333,  0.366666666666667,  0.333333333333333 ]
    mass: 137.327000
    reduced_to: 1
  - symbol: Ba # 44
    coordinates: [  0.133333333333333,  0.466666666666667,  0.333333333333333 ]
    mass: 137.327000
    reduced_to: 1
  - symbol: Ba # 45
    coordinates: [  0.233333333333333,  0.566666666666667,  0.333333333333333 ]
    mass: 137.327000
    reduced_to: 1
  - symbol: Ba # 46
    coordinates: [  0.333333333333333,  0.666666666666667,  0.333333333333333 ]
    mass: 137.327000
    reduced_to: 1
  - symbol: Ba # 47
    coordinates: [  0.433333333333333,  0.766666666666667,  0.333333333333333 ]
    mass: 137.327000
    reduced_to: 1
  - symbol: Ba # 48
    coordinates: [  0.533333333333333,  0.866666666666667,  0.333333333333333 ]
    mass: 137.327000
    reduced_to: 1
  - symbol: Ba # 49
    coordinates: [  0.633333333333333,  0.966666666666667,  0.333333333333333 ]
    mass: 137.327000
    reduced_to: 1
  - symbol: Ba # 50
    coordinates: [  0.733333333333333,  0.066666666666667,  0.333333333333333 ]
    mass: 137.327000
    reduced_to: 1
  - symbol: Ba # 51
    coordinates: [  0.666666666666667,  0.333333333333333,  0.333333333333333 ]
    mass: 137.327000
    reduced_to: 1
  - symbol: Ba # 52
    coordinates: [  0.766666666666667,  0.433333333333333,  0.333333333333333 ]
    mass: 137.327000
    reduced_to: 1
  - symbol: Ba # 53
    coordinates: [  0.866666666666667,  0.533333333333333,  0.333333333333333 ]
    mass: 137.327000
    reduced_to: 1
  - symbol: Ba # 54
    coordinates: [  0.966666666666667,  0.633333333333333,  0.333333333333333 ]
    mass: 137.327000
    reduced_to: 1
  - symbol: Ba # 55
    coordinates: [  0.066666666666667,  0.733333333333333,  0.333333333333333 ]
    mass: 137.327000
    reduced_to: 1
  - symbol: Ba # 56
    coordinates: [  0.166666666666667,  0.833333333333333,  0.333333333333333 ]
    mass: 137.327000
    reduced_to: 1
  - symbol: Ba # 57
    coordinates: [  0.266666666666667,  0.933333333333333,  0.333333333333333 ]
    mass: 137.327000
    reduced_to: 1
  - symbol: Ba # 58
    coordinates: [  0.366666666666667,  0.033333333333333,  0.333333333333333 ]
    mass: 137.327000
    reduced_to: 1
  - symbol: Ba # 59
    coordinates: [  0.466666666666667,  0.133333333333333,  0.333333333333333 ]
    mass: 137.327000
    reduced_to: 1
  - symbol: Ba # 60
    coordinates: [  0.566666666666667,  0.233333333333333,  0.333333333333333 ]
    mass: 137.327000
    reduced_to: 1
  - symbol: Ba # 61
    coordinates: [  0.000000000000000,  0.000000000000000,  0.666666666666667 ]
    mass: 137.327000
    reduced_to: 1
  - symbol: Ba # 62
    coordinates: [  0.100000000000000,  0.100000000000000,  0.666666666666667 ]
    mass: 137.327000
    reduced_to: 1
  - symbol: Ba # 63
    coordinates: [  0.200000000000000,  0.200000000000000,  0.666666666666667 ]
    mass: 137.327000
    reduced_to: 1
  - symbol: Ba # 64
    coordinates: [  0.300000000000000,  0.300000000000000,  0.666666666666667 ]
    mass: 137.327000
    reduced_to: 1
  - symbol: Ba # 65
    coordinates: [  0.400000000000000,  0.400000000000000,  0.666666666666667 ]
    mass: 137.327000
    reduced_to: 1
  - symbol: Ba # 66
    coordinates: [  0.500000000000000,  0.500000000000000,  0.666666666666667 ]
    mass: 137.327000
    reduced_to: 1
  - symbol: Ba # 67
    coordinates: [  0.600000000000000,  0.600000000000000,  0.666666666666667 ]
    mass: 137.327000
    reduced_to: 1
  - symbol: Ba # 68
    coordinates: [  0.700000000000000,  0.700000000000000,  0.666666666666667 ]
    mass: 137.327000
    reduced_to: 1
  - symbol: Ba # 69
    coordinates: [  0.800000000000000,  0.800000000000000,  0.666666666666667 ]
    mass: 137.327000
    reduced_to: 1
  - symbol: Ba # 70
    coordinates: [  0.900000000000000,  0.900000000000000,  0.666666666666667 ]
    mass: 137.327000
    reduced_to: 1
  - symbol: Ba # 71
    coordinates: [  0.833333333333333,  0.166666666666667,  0.666666666666667 ]
    mass: 137.327000
    reduced_to: 1
  - symbol: Ba # 72
    coordinates: [  0.933333333333333,  0.266666666666667,  0.666666666666667 ]
    mass: 137.327000
    reduced_to: 1
  - symbol: Ba # 73
    coordinates: [  0.033333333333333,  0.366666666666667,  0.666666666666667 ]
    mass: 137.327000
    reduced_to: 1
  - symbol: Ba # 74
    coordinates: [  0.133333333333333,  0.466666666666667,  0.666666666666667 ]
    mass: 137.327000
    reduced_to: 1
  - symbol: Ba # 75
    coordinates: [  0.233333333333333,  0.566666666666667,  0.666666666666667 ]
    mass: 137.327000
    reduced_to: 1
  - symbol: Ba # 76
    coordinates: [  0.333333333333333,  0.666666666666667,  0.666666666666667 ]
    mass: 137.327000
    reduced_to: 1
  - symbol: Ba # 77
    coordinates: [  0.433333333333333,  0.766666666666667,  0.666666666666667 ]
    mass: 137.327000
    reduced_to: 1
  - symbol: Ba # 78
    coordinates: [  0.533333333333333,  0.866666666666667,  0.666666666666667 ]
    mass: 137.327000
    reduced_to: 1
  - symbol: Ba # 79
    coordinates: [  0.633333333333333,  0.966666666666667,  0.666666666666667 ]
    mass: 137.327000
    reduced_to: 1
  - symbol: Ba # 80
    coordinates: [  0.733333333333333,  0.066666666666667,  0.666666666666667 ]
    mass: 137.327000
    reduced_to: 1
  - symbol: Ba # 81
    coordinates: [  0.666666666666667,  0.333333333333333,  0.666666666666667 ]
    mass: 137.327000
    reduced_to: 1
  - symbol: Ba # 82
    coordinates: [  0.766666666666667,  0.433333333333333,  0.666666666666667 ]
    mass: 137.327000
    reduced_to: 1
  - symbol: Ba # 83
    coordinates: [  0.866666666666667,  0.533333333333333,  0.666666666666667 ]
    mass: 137.327000
    reduced_to: 1
  - symbol: Ba # 84
    coordinates: [  0.966666666666667,  0.633333333333333,  0.666666666666667 ]
    mass: 137.327000
    reduced_to: 1
  - symbol: Ba # 85
    coordinates: [  0.066666666666667,  0.733333333333333,  0.666666666666667 ]
    mass: 137.327000
    reduced_to: 1
  - symbol: Ba # 86
    coordinates: [  0.166666666666667,  0.833333333333333,  0.666666666666667 ]
    mass: 137.327000
    reduced_to: 1
  - symbol: Ba # 87
    coordinates: [  0.266666666666667,  0.933333333333333,  0.666666666666667 ]
    mass: 137.327000
    reduced_to: 1
  - symbol: Ba # 88
    coordinates: [  0.366666666666667,  0.033333333333333,  0.666666666666667 ]
    mass: 137.327000
    reduced_to: 1
  - symbol: Ba # 89
    coordinates: [  0.466666666666667,  0.133333333333333,  0.666666666666667 ]
    mass: 137.327000
    reduced_to: 1
  - symbol: Ba # 90
    coordinates: [  0.566666666666667,  0.233333333333333,  0.666666666666667 ]
    mass: 137.327000
    reduced_to: 1
  - symbol: Ba # 91
    coordinates: [  0.000000000000000,  0.000000000000000,  0.166666666666667 ]
    mass: 137.327000
    reduced_to: 91
  - symbol: Ba # 92
    coordinates: [  0.100000000000000,  0.100000000000000,  0.166666666666667 ]
    mass: 137.327000
    reduced_to: 91
  - symbol: Ba # 93
    coordinates: [  0.200000000000000,  0.200000000000000,  0.166666666666667 ]
    mass: 137.327000
    reduced_to: 91
  - symbol: Ba # 94
    coordinates: [  0.300000000000000,  0.300000000000000,  0.166666666666667 ]
    mass: 137.327000
    reduced_to: 91
  - symbol: Ba # 95
    coordinates: [  0.400000000000000,  0.400000000000000,  0.166666666666667 ]
    mass: 137.327000
    reduced_to: 91
  - symbol: Ba # 96
    coordinates: [  0.500000000000000,  0.500000000000000,  0.166666666666667 ]
    mass: 137.327000
    reduced_to: 91
  - symbol: Ba # 97
    coordinates: [  0.600000000000000,  0.600000000000000,  0.166666666666667 ]
    mass: 137.327000
    reduced_to: 91
  - symbol: Ba # 98
    coordinates: [  0.700000000000000,  0.700000000000000,  0.166666666666667 ]
    mass: 137.327000
    reduced_to: 91
  - symbol: Ba # 99
    coordinates: [  0.800000000000000,  0.800000000000000,  0.166666666666667 ]
    mass: 137.327000
    reduced_to: 91
  - symbol: Ba # 100
    coordinates: [  0.900000000000000,  0.900000000000000,  0.166666666666667 ]
    mass: 137.327000
    reduced_to: 91
  - symbol: Ba # 101
    coordinates: [  0.833333333333333,  0.166666666666667,  0.166666666666667 ]
    mass: 137.327000
    reduced_to: 91
  - symbol: Ba # 102
    coordinates: [  0.933333333333333,  0.266666666666667,  0.166666666666667 ]
    mass: 137.327000
    reduced_to: 91
  - symbol: Ba # 103
    coordinates: [  0.033333333333333,  0.366666666666667,  0.166666666666667 ]
    mass: 137.327000
    reduced_to: 91
  - symbol: Ba # 104
    coordinates: [  0.133333333333333,  0.466666666666667,  0.166666666666667 ]
    mass: 137.327000
    reduced_to: 91
  - symbol: Ba # 105
    coordinates: [  0.233333333333333,  0.566666666666667,  0.166666666666667 ]
    mass: 137.327000
    reduced_to: 91
  - symbol: Ba # 106
    coordinates: [  0.333333333333333,  0.666666666666667,  0.166666666666667 ]
    mass: 137.327000
    reduced_to: 91
  - symbol: Ba # 107
    coordinates: [  0.433333333333333,  0.766666666666667,  0.166666666666667 ]
    mass: 137.327000
    reduced_to: 91
  - symbol: Ba # 108
    coordinates: [  0.533333333333333,  0.866666666666667,  0.166666666666667 ]
    mass: 137.327000
    reduced_to: 91
  - symbol: Ba # 109
    coordinates: [  0.633333333333333,  0.966666666666667,  0.166666666666667 ]
    mass: 137.327000
    reduced_to: 91
  - symbol: Ba # 110
    coordinates: [  0.733333333333333,  0.066666666666667,  0.166666666666667 ]
    mass: 137.327000
    reduced_to: 91
  - symbol: Ba # 111
    coordinates: [  0.666666666666667,  0.333333333333333,  0.166666666666667 ]
    mass: 137.327000
    reduced_to: 91
  - symbol: Ba # 112
    coordinates: [  0.766666666666667,  0.433333333333333,  0.166666666666667 ]
    mass: 137.327000
    reduced_to: 91
  - symbol: Ba # 113
    coordinates: [  0.866666666666667,  0.533333333333333,  0.166666666666667 ]
    mass: 137.327000
    reduced_to: 91
  - symbol: Ba # 114
    coordinates: [  0.966666666666667,  0.633333333333333,  0.166666666666667 ]
    mass: 137.327000
    reduced_to: 91
  - symbol: Ba # 115
    coordinates: [  0.066666666666667,  0.733333333333333,  0.166666666666667 ]
    mass: 137.327000
    reduced_to: 91
  - symbol: Ba # 116
    coordinates: [  0.166666666666667,  0.833333333333333,  0.166666666666667 ]
    mass: 137.327000
    reduced_to: 91
  - symbol: Ba # 117
    coordinates: [  0.266666666666667,  0.933333333333333,  0.166666666666667 ]
    mass: 137.327000
    reduced_to: 91
  - symbol: Ba # 118
    coordinates: [  0.366666666666667,  0.033333333333333,  0.166666666666667 ]
    mass: 137.327000
    reduced_to: 91
  - symbol: Ba # 119
    coordinates: [  0.466666666666667,  0.133333333333333,  0.166666666666667 ]
    mass: 137.327000
    reduced_to: 91
  - symbol: Ba # 120
    coordinates: [  0.566666666666667,  0.233333333333333,  0.166666666666667 ]
    mass: 137.327000
    reduced_to: 91
  - symbol: Ba # 121
    coordinates: [  0.000000000000000,  0.000000000000000,  0.500000000000000 ]
    mass: 137.327000
    reduced_to: 91
  - symbol: Ba # 122
    coordinates: [  0.100000000000000,  0.100000000000000,  0.500000000000000 ]
    mass: 137.327000
    reduced_to: 91
  - symbol: Ba # 123
    coordinates: [  0.200000000000000,  0.200000000000000,  0.500000000000000 ]
    mass: 137.327000
    reduced_to: 91
  - symbol: Ba # 124
    coordinates: [  0.300000000000000,  0.300000000000000,  0.500000000000000 ]
    mass: 137.327000
    reduced_to: 91
  - symbol: Ba # 125
    coordinates: [  0.400000000000000,  0.400000000000000,  0.500000000000000 ]
    mass: 137.327000
    reduced_to: 91
  - symbol: Ba # 126
    coordinates: [  0.500000000000000,  0.500000000000000,  0.500000000000000 ]
    mass: 137.327000
    reduced_to: 91
  - symbol: Ba # 127
    coordinates: [  0.600000000000000,  0.600000000000000,  0.500000000000000 ]
    mass: 137.327000
    reduced_to: 91
  - symbol: Ba # 128
    coordinates: [  0.700000000000000,  0.700000000000000,  0.500000000000000 ]
    mass: 137.327000
    reduced_to: 91
  - symbol: Ba # 129
    coordinates: [  0.800000000000000,  0.800000000000000,  0.500000000000000 ]
    mass: 137.327000
    reduced_to: 91
  - symbol: Ba # 130
    coordinates: [  0.900000000000000,  0.900000000000000,  0.500000000000000 ]
    mass: 137.327000
    reduced_to: 91
  - symbol: Ba # 131
    coordinates: [  0.833333333333333,  0.166666666666667,  0.500000000000000 ]
    mass: 137.327000
    reduced_to: 91
  - symbol: Ba # 132
    coordinates: [  0.933333333333333,  0.266666666666667,  0.500000000000000 ]
    mass: 137.327000
    reduced_to: 91
  - symbol: Ba # 133
    coordinates: [  0.033333333333333,  0.366666666666667,  0.500000000000000 ]
    mass: 137.327000
    reduced_to: 91
  - symbol: Ba # 134
    coordinates: [  0.133333333333333,  0.466666666666667,  0.500000000000000 ]
    mass: 137.327000
    reduced_to: 91
  - symbol: Ba # 135
    coordinates: [  0.233333333333333,  0.566666666666667,  0.500000000000000 ]
    mass: 137.327000
    reduced_to: 91
  - symbol: Ba # 136
    coordinates: [  0.333333333333333,  0.666666666666667,  0.500000000000000 ]
    mass: 137.327000
    reduced_to: 91
  - symbol: Ba # 137
    coordinates: [  0.433333333333333,  0.766666666666667,  0.500000000000000 ]
    mass: 137.327000
    reduced_to: 91
  - symbol: Ba # 138
    coordinates: [  0.533333333333333,  0.866666666666667,  0.500000000000000 ]
    mass: 137.327000
    reduced_to: 91
  - symbol: Ba # 139
    coordinates: [  0.633333333333333,  0.966666666666667,  0.500000000000000 ]
    mass: 137.327000
    reduced_to: 91
  - symbol: Ba # 140
    coordinates: [  0.733333333333333,  0.066666666666667,  0.500000000000000 ]
    mass: 137.327000
    reduced_to: 91
  - symbol: Ba # 141
    coordinates: [  0.666666666666667,  0.333333333333333,  0.500000000000000 ]
    mass: 137.327000
    reduced_to: 91
  - symbol: Ba # 142
    coordinates: [  0.766666666666667,  0.433333333333333,  0.500000000000000 ]
    mass: 137.327000
    reduced_to: 91
  - symbol: Ba # 143
    coordinates: [  0.866666666666667,  0.533333333333333,  0.500000000000000 ]
    mass: 137.327000
    reduced_to: 91
  - symbol: Ba # 144
    coordinates: [  0.966666666666667,  0.633333333333333,  0.500000000000000 ]
    mass: 137.327000
    reduced_to: 91
  - symbol: Ba # 145
    coordinates: [  0.066666666666667,  0.733333333333333,  0.500000000000000 ]
    mass: 137.327000
    reduced_to: 91
  - symbol: Ba # 146
    coordinates: [  0.166666666666667,  0.833333333333333,  0.500000000000000 ]
    mass: 137.327000
    reduced_to: 91
  - symbol: Ba # 147
    coordinates: [  0.266666666666667,  0.933333333333333,  0.500000000000000 ]
    mass: 137.327000
    reduced_to: 91
  - symbol: Ba # 148
    coordinates: [  0.366666666666667,  0.033333333333333,  0.500000000000000 ]
    mass: 137.327000
    reduced_to: 91
  - symbol: Ba # 149
    coordinates: [  0.466666666666667,  0.133333333333333,  0.500000000000000 ]
    mass: 137.327000
    reduced_to: 91
  - symbol: Ba # 150
    coordinates: [  0.566666666666667,  0.233333333333333,  0.500000000000000 ]
    mass: 137.327000
    reduced_to: 91
  - symbol: Ba # 151
    coordinates: [  0.000000000000000,  0.000000000000000,  0.833333333333333 ]
    mass: 137.327000
    reduced_to: 91
  - symbol: Ba # 152
    coordinates: [  0.100000000000000,  0.100000000000000,  0.833333333333333 ]
    mass: 137.327000
    reduced_to: 91
  - symbol: Ba # 153
    coordinates: [  0.200000000000000,  0.200000000000000,  0.833333333333333 ]
    mass: 137.327000
    reduced_to: 91
  - symbol: Ba # 154
    coordinates: [  0.300000000000000,  0.300000000000000,  0.833333333333333 ]
    mass: 137.327000
    reduced_to: 91
  - symbol: Ba # 155
    coordinates: [  0.400000000000000,  0.400000000000000,  0.833333333333333 ]
    mass: 137.327000
    reduced_to: 91
  - symbol: Ba # 156
    coordinates: [  0.500000000000000,  0.500000000000000,  0.833333333333333 ]
    mass: 137.327000
    reduced_to: 91
  - symbol: Ba # 157
    coordinates: [  0.600000000000000,  0.600000000000000,  0.833333333333333 ]
    mass: 137.327000
    reduced_to: 91
  - symbol: Ba # 158
    coordinates: [  0.700000000000000,  0.700000000000000,  0.833333333333333 ]
    mass: 137.327000
    reduced_to: 91
  - symbol: Ba # 159
    coordinates: [  0.800000000000000,  0.800000000000000,  0.833333333333333 ]
    mass: 137.327000
    reduced_to: 91
  - symbol: Ba # 160
    coordinates: [  0.900000000000000,  0.900000000000000,  0.833333333333333 ]
    mass: 137.327000
    reduced_to: 91
  - symbol: Ba # 161
    coordinates: [  0.833333333333333,  0.166666666666667,  0.833333333333333 ]
    mass: 137.327000
    reduced_to: 91
  - symbol: Ba # 162
    coordinates: [  0.933333333333333,  0.266666666666667,  0.833333333333333 ]
    mass: 137.327000
    reduced_to: 91
  - symbol: Ba # 163
    coordinates: [  0.033333333333333,  0.366666666666667,  0.833333333333333 ]
    mass: 137.327000
    reduced_to: 91
  - symbol: Ba # 164
    coordinates: [  0.133333333333333,  0.466666666666667,  0.833333333333333 ]
    mass: 137.327000
    reduced_to: 91
  - symbol: Ba # 165
    coordinates: [  0.233333333333333,  0.566666666666667,  0.833333333333333 ]
    mass: 137.327000
    reduced_to: 91
  - symbol: Ba # 166
    coordinates: [  0.333333333333333,  0.666666666666667,  0.833333333333333 ]
    mass: 137.327000
    reduced_to: 91
  - symbol: Ba # 167
    coordinates: [  0.433333333333333,  0.766666666666667,  0.833333333333333 ]
    mass: 137.327000
    reduced_to: 91
  - symbol: Ba # 168
    coordinates: [  0.533333333333333,  0.866666666666667,  0.833333333333333 ]
    mass: 137.327000
    reduced_to: 91
  - symbol: Ba # 169
    coordinates: [  0.633333333333333,  0.966666666666667,  0.833333333333333 ]
    mass: 137.327000
    reduced_to: 91
  - symbol: Ba # 170
    coordinates: [  0.733333333333333,  0.066666666666667,  0.833333333333333 ]
    mass: 137.327000
    reduced_to: 91
  - symbol: Ba # 171
    coordinates: [  0.666666666666667,  0.333333333333333,  0.833333333333333 ]
    mass: 137.327000
    reduced_to: 91
  - symbol: Ba # 172
    coordinates: [  0.766666666666667,  0.433333333333333,  0.833333333333333 ]
    mass: 137.327000
    reduced_to: 91
  - symbol: Ba # 173
    coordinates: [  0.866666666666667,  0.533333333333333,  0.833333333333333 ]
    mass: 137.327000
    reduced_to: 91
  - symbol: Ba # 174
    coordinates: [  0.966666666666667,  0.633333333333333,  0.833333333333333 ]
    mass: 137.327000
    reduced_to: 91
  - symbol: Ba # 175
    coordinates: [  0.066666666666667,  0.733333333333333,  0.833333333333333 ]
    mass: 137.327000
    reduced_to: 91
  - symbol: Ba # 176
    coordinates: [  0.166666666666667,  0.833333333333333,  0.833333333333333 ]
    mass: 137.327000
    reduced_to: 91
  - symbol: Ba # 177
    coordinates: [  0.266666666666667,  0.933333333333333,  0.833333333333333 ]
    mass: 137.327000
    reduced_to: 91
  - symbol: Ba # 178
    coordinates: [  0.366666666666667,  0.033333333333333,  0.833333333333333 ]
    mass: 137.327000
    reduced_to: 91
  - symbol: Ba # 179
    coordinates: [  0.466666666666667,  0.133333333333333,  0.833333333333333 ]
    mass: 137.327000
    reduced_to: 91
  - symbol: Ba # 180
    coordinates: [  0.566666666666667,  0.233333333333333,  0.833333333333333 ]
    mass: 137.327000
    reduced_to: 91
  - symbol: Ag # 181
    coordinates: [  0.011111111111110,  0.122222222222222,  0.250000000000000 ]
    mass: 107.868200
    reduced_to: 181
  - symbol: Ag # 182
    coordinates: [  0.111111111111110,  0.222222222222222,  0.250000000000000 ]
    mass: 107.868200
    reduced_to: 181
  - symbol: Ag # 183
    coordinates: [  0.211111111111110,  0.322222222222222,  0.250000000000000 ]
    mass: 107.868200
    reduced_to: 181
  - symbol: Ag # 184
    coordinates: [  0.311111111111111,  0.422222222222222,  0.250000000000000 ]
    mass: 107.868200
    reduced_to: 181
  - symbol: Ag # 185
    coordinates: [  0.411111111111110,  0.522222222222222,  0.250000000000000 ]
    mass: 107.868200
    reduced_to: 181
  - symbol: Ag # 186
    coordinates: [  0.511111111111111,  0.622222222222222,  0.250000000000000 ]
    mass: 107.868200
    reduced_to: 181
  - symbol: Ag # 187
    coordinates: [  0.611111111111111,  0.722222222222222,  0.250000000000000 ]
    mass: 107.868200
    reduced_to: 181
  - symbol: Ag # 188
    coordinates: [  0.711111111111111,  0.822222222222222,  0.250000000000000 ]
    mass: 107.868200
    reduced_to: 181
  - symbol: Ag # 189
    coordinates: [  0.811111111111111,  0.922222222222222,  0.250000000000000 ]
    mass: 107.868200
    reduced_to: 181
  - symbol: Ag # 190
    coordinates: [  0.911111111111111,  0.022222222222222,  0.250000000000000 ]
    mass: 107.868200
    reduced_to: 181
  - symbol: Ag # 191
    coordinates: [  0.844444444444444,  0.288888888888889,  0.250000000000000 ]
    mass: 107.868200
    reduced_to: 181
  - symbol: Ag # 192
    coordinates: [  0.944444444444444,  0.388888888888889,  0.250000000000000 ]
    mass: 107.868200