phonopy:
  version: "2.27.0"
  frequency_unit_conversion_factor: 15.633302
  symmetry_tolerance: 1.00000e-03

space_group:
  type: "Im-3m"
  number: 229
  Hall_symbol: "-I 4 2 3"

primitive_matrix:
- [ -0.333333333333333,  0.666666666666667,  0.000000000000000 ]
- [  0.333333333333333,  0.333333333333333, -0.000000000000000 ]
- [  0.333333333333333,  0.333333333333333, -1.000000000000000 ]

supercell_matrix:
- [   3,  -2,   0 ]
- [   3,   2,   0 ]
- [   0,   0,   4 ]

primitive_cell:
  lattice:
  - [     0.000000000000022,     5.019302659766433,     1.774598306780445 ] # a
  - [     4.346843612640517,    -2.509651329883233,     1.774598306780428 ] # b
  - [    -0.000000000000003,    -0.000000000000013,    -5.323794920341295 ] # c
  points:
  - symbol: Ag # 1
    coordinates: [  0.000000000000009,  0.000000000000003,  0.994027295299601 ]
    mass: 107.868200
  - symbol: Te # 2
    coordinates: [  0.500000762154354,  0.000000000000004,  0.494024825618252 ]
    mass: 127.600000
  - symbol: Te # 3
    coordinates: [  0.499999237845664,  0.499999237845658,  0.994024063463907 ]
    mass: 127.600000
  - symbol: Te # 4
    coordinates: [  0.000000000000008,  0.500000762154348,  0.494024825618252 ]
    mass: 127.600000
  reciprocal_lattice: # without 2pi
  - [     0.115025992319120,     0.199230862887741,    -0.000000000000001 ] # a*
  - [     0.230051984638238,    -0.000000000000001,    -0.000000000000000 ] # b*
  - [     0.115025992319119,     0.066410287629247,    -0.187835935636659 ] # c*

unit_cell:
  lattice:
  - [     4.346843612640496,    -7.528953989649667,    -0.000000000000017 ] # a
  - [     4.346843612640557,     7.528953989649621,     0.000000000000023 ] # b
  - [     0.000000000000004,     0.000000000000011,     5.323794920341296 ] # c
  points:
  - symbol: Ag # 1
    coordinates: [ -0.000000000000001,  0.000000000000004,  0.005972704700404 ]
    mass: 107.868200
    reduced_to: 1
  - symbol: Ag # 2
    coordinates: [  0.666666666666666,  0.333333333333337,  0.339306038033737 ]
    mass: 107.868200
    reduced_to: 1
  - symbol: Ag # 3
    coordinates: [  0.333333333333332,  0.666666666666670,  0.672639371367070 ]
    mass: 107.868200
    reduced_to: 1
  - symbol: Te # 4
    coordinates: [  0.166666412615218,  0.833333587384786,  0.339308761766533 ]
    mass: 127.600000
    reduced_to: 4
  - symbol: Te # 5
    coordinates: [  0.166666412615217,  0.333332825230441,  0.339308761766534 ]
    mass: 127.600000
    reduced_to: 5
  - symbol: Te # 6
    coordinates: [  0.666667174769562,  0.833333587384785,  0.339308761766534 ]
    mass: 127.600000
    reduced_to: 6
  - symbol: Te # 7
    coordinates: [  0.833333079281884,  0.166666920718118,  0.672642095099867 ]
    mass: 127.600000
    reduced_to: 4
  - symbol: Te # 8
    coordinates: [  0.833333079281884,  0.666666158563774,  0.672642095099867 ]
    mass: 127.600000
    reduced_to: 5
  - symbol: Te # 9
    coordinates: [  0.333333841436229,  0.166666920718119,  0.672642095099867 ]
    mass: 127.600000
    reduced_to: 6
  - symbol: Te # 10
    coordinates: [  0.499999745948551,  0.500000254051452,  0.005975428433200 ]
    mass: 127.600000
    reduced_to: 4
  - symbol: Te # 11
    coordinates: [  0.499999745948551,  0.999999491897107,  0.005975428433200 ]
    mass: 127.600000
    reduced_to: 5
  - symbol: Te # 12
    coordinates: [  0.000000508102896,  0.500000254051452,  0.005975428433200 ]
    mass: 127.600000
    reduced_to: 6

supercell:
  lattice:
  - [    26.081061675843159,    -0.000000000000137,     0.000000000000018 ] # a
  - [     0.000000000000119,    30.115815958598574,     0.000000000000081 ] # b
  - [     0.000000000000015,     0.000000000000045,    21.295179681365184 ] # c
  points:
  - symbol: Ag # 1
    coordinates: [  0.000000000000001,  0.000000000000001,  0.001493176175101 ]
    mass: 107.868200
    reduced_to: 1
  - symbol: Ag # 2
    coordinates: [  0.166666666666667,  0.750000000000001,  0.001493176175101 ]
    mass: 107.868200
    reduced_to: 1
  - symbol: Ag # 3
    coordinates: [  0.333333333333334,  0.500000000000001,  0.001493176175101 ]
    mass: 107.868200
    reduced_to: 1
  - symbol: Ag # 4
    coordinates: [  0.500000000000001,  0.250000000000001,  0.001493176175101 ]
    mass: 107.868200
    reduced_to: 1
  - symbol: Ag # 5
    coordinates: [  0.666666666666667,  0.000000000000001,  0.001493176175101 ]
    mass: 107.868200
    reduced_to: 1
  - symbol: Ag # 6
    coordinates: [  0.166666666666667,  0.250000000000001,  0.001493176175101 ]
    mass: 107.868200
    reduced_to: 1
  - symbol: Ag # 7
    coordinates: [  0.333333333333334,  0.000000000000001,  0.001493176175101 ]
    mass: 107.868200
    reduced_to: 1
  - symbol: Ag # 8
    coordinates: [  0.500000000000001,  0.750000000000001,  0.001493176175101 ]
    mass: 107.868200
    reduced_to: 1
  - symbol: Ag # 9
    coordinates: [  0.666666666666667,  0.500000000000001,  0.001493176175101 ]
    mass: 107.868200
    reduced_to: 1
  - symbol: Ag # 10
    coordinates: [  0.833333333333334,  0.250000000000001,  0.001493176175101 ]
    mass: 107.868200
    reduced_to: 1
  - symbol: Ag # 11
    coordinates: [  0.833333333333334,  0.750000000000001,  0.001493176175101 ]
    mass: 107.868200
    reduced_to: 1
  - symbol: Ag # 12
    coordinates: [  0.000000000000000,  0.500000000000001,  0.001493176175101 ]
    mass: 107.868200
    reduced_to: 1
  - symbol: Ag # 13
    coordinates: [  0.000000000000001,  0.000000000000001,  0.251493176175101 ]
    mass: 107.868200
    reduced_to: 1
  - symbol: Ag # 14
    coordinates: [  0.166666666666667,  0.750000000000001,  0.251493176175101 ]
    mass: 107.868200
    reduced_to: 1
  - symbol: Ag # 15
    coordinates: [  0.333333333333334,  0.500000000000001,  0.251493176175101 ]
    mass: 107.868200
    reduced_to: 1
  - symbol: Ag # 16
    coordinates: [  0.500000000000001,  0.250000000000001,  0.251493176175101 ]
    mass: 107.868200
    reduced_to: 1
  - symbol: Ag # 17
    coordinates: [  0.666666666666667,  0.000000000000001,  0.251493176175101 ]
    mass: 107.868200
    reduced_to: 1
  - symbol: Ag # 18
    coordinates: [  0.166666666666667,  0.250000000000001,  0.251493176175101 ]
    mass: 107.868200
    reduced_to: 1
  - symbol: Ag # 19
    coordinates: [  0.333333333333334,  0.000000000000001,  0.251493176175101 ]
    mass: 107.868200
    reduced_to: 1
  - symbol: Ag # 20
    coordinates: [  0.500000000000001,  0.750000000000001,  0.251493176175101 ]
    mass: 107.868200
    reduced_to: 1
  - symbol: Ag # 21
    coordinates: [  0.666666666666667,  0.500000000000001,  0.251493176175101 ]
    mass: 107.868200
    reduced_to: 1
  - symbol: Ag # 22
    coordinates: [  0.833333333333334,  0.250000000000001,  0.251493176175101 ]
    mass: 107.868200
    reduced_to: 1
  - symbol: Ag # 23
    coordinates: [  0.833333333333334,  0.750000000000001,  0.251493176175101 ]
    mass: 107.868200
    reduced_to: 1
  - symbol: Ag # 24
    coordinates: [  0.000000000000000,  0.500000000000001,  0.251493176175101 ]
    mass: 107.868200
    reduced_to: 1
  - symbol: Ag # 25
    coordinates: [  0.000000000000001,  0.000000000000001,  0.501493176175101 ]
    mass: 107.868200
    reduced_to: 1
  - symbol: Ag # 26
    coordinates: [  0.166666666666667,  0.750000000000001,  0.501493176175101 ]
    mass: 107.868200
    reduced_to: 1
  - symbol: Ag # 27
    coordinates: [  0.333333333333334,  0.500000000000001,  0.501493176175101 ]
    mass: 107.868200
    reduced_to: 1
  - symbol: Ag # 28
    coordinates: [  0.500000000000001,  0.250000000000001,  0.501493176175101 ]
    mass: 107.868200
    reduced_to: 1
  - symbol: Ag # 29
    coordinates: [  0.666666666666667,  0.000000000000001,  0.501493176175101 ]
    mass: 107.868200
    reduced_to: 1
  - symbol: Ag # 30
    coordinates: [  0.166666666666667,  0.250000000000001,  0.501493176175101 ]
    mass: 107.868200
    reduced_to: 1
  - symbol: Ag # 31
    coordinates: [  0.333333333333334,  0.000000000000001,  0.501493176175101 ]
    mass: 107.868200
    reduced_to: 1
  - symbol: Ag # 32
    coordinates: [  0.500000000000001,  0.750000000000001,  0.501493176175101 ]
    mass: 107.868200
    reduced_to: 1
  - symbol: Ag # 33
    coordinates: [  0.666666666666667,  0.500000000000001,  0.501493176175101 ]
    mass: 107.868200
    reduced_to: 1
  - symbol: Ag # 34
    coordinates: [  0.833333333333334,  0.250000000000001,  0.501493176175101 ]
    mass: 107.868200
    reduced_to: 1
  - symbol: Ag # 35
    coordinates: [  0.833333333333334,  0.750000000000001,  0.501493176175101 ]
    mass: 107.868200
    reduced_to: 1
  - symbol: Ag # 36
    coordinates: [  0.000000000000000,  0.500000000000001,  0.501493176175101 ]
    mass: 107.868200
    reduced_to: 1
  - symbol: Ag # 37
    coordinates: [  0.000000000000001,  0.000000000000001,  0.751493176175101 ]
    mass: 107.868200
    reduced_to: 1
  - symbol: Ag # 38
    coordinates: [  0.166666666666667,  0.750000000000001,  0.751493176175101 ]
    mass: 107.868200
    reduced_to: 1
  - symbol: Ag # 39
    coordinates: [  0.333333333333334,  0.500000000000001,  0.751493176175101 ]
    mass: 107.868200
    reduced_to: 1
  - symbol: Ag # 40
    coordinates: [  0.500000000000001,  0.250000000000001,  0.751493176175101 ]
    mass: 107.868200
    reduced_to: 1
  - symbol: Ag # 41
    coordinates: [  0.666666666666667,  0.000000000000001,  0.751493176175101 ]
    mass: 107.868200
    reduced_to: 1
  - symbol: Ag # 42
    coordinates: [  0.166666666666667,  0.250000000000001,  0.751493176175101 ]
    mass: 107.868200
    reduced_to: 1
  - symbol: Ag # 43
    coordinates: [  0.333333333333334,  0.000000000000001,  0.751493176175101 ]
    mass: 107.868200
    reduced_to: 1
  - symbol: Ag # 44
    coordinates: [  0.500000000000001,  0.750000000000001,  0.751493176175101 ]
    mass: 107.868200
    reduced_to: 1
  - symbol: Ag # 45
    coordinates: [  0.666666666666667,  0.500000000000001,  0.751493176175101 ]
    mass: 107.868200
    reduced_to: 1
  - symbol: Ag # 46
    coordinates: [  0.833333333333334,  0.250000000000001,  0.751493176175101 ]
    mass: 107.868200
    reduced_to: 1
  - symbol: Ag # 47
    coordinates: [  0.833333333333334,  0.750000000000001,  0.751493176175101 ]
    mass: 107.868200
    reduced_to: 1
  - symbol: Ag # 48
    coordinates: [  0.000000000000000,  0.500000000000001,  0.751493176175101 ]
    mass: 107.868200
    reduced_to: 1
  - symbol: Ag # 49
    coordinates: [  0.166666666666667,  0.916666666666668,  0.084826509508434 ]
    mass: 107.868200
    reduced_to: 1
  - symbol: Ag # 50
    coordinates: [  0.333333333333334,  0.666666666666668,  0.084826509508434 ]
    mass: 107.868200
    reduced_to: 1
  - symbol: Ag # 51
    coordinates: [  0.500000000000000,  0.416666666666668,  0.084826509508434 ]
    mass: 107.868200
    reduced_to: 1
  - symbol: Ag # 52
    coordinates: [  0.666666666666667,  0.166666666666668,  0.084826509508434 ]
    mass: 107.868200
    reduced_to: 1
  - symbol: Ag # 53
    coordinates: [  0.833333333333334,  0.916666666666668,  0.084826509508434 ]
    mass: 107.868200
    reduced_to: 1
  - symbol: Ag # 54
    coordinates: [  0.333333333333334,  0.166666666666668,  0.084826509508434 ]
    mass: 107.868200
    reduced_to: 1
  - symbol: Ag # 55
    coordinates: [  0.500000000000001,  0.916666666666668,  0.084826509508434 ]
    mass: 107.868200
    reduced_to: 1
  - symbol: Ag # 56
    coordinates: [  0.666666666666667,  0.666666666666668,  0.084826509508434 ]
    mass: 107.868200
    reduced_to: 1
  - symbol: Ag # 57
    coordinates: [  0.833333333333334,  0.416666666666668,  0.084826509508434 ]
    mass: 107.868200
    reduced_to: 1
  - symbol: Ag # 58
    coordinates: [  0.000000000000001,  0.166666666666668,  0.084826509508434 ]
    mass: 107.868200
    reduced_to: 1
  - symbol: Ag # 59
    coordinates: [  0.000000000000001,  0.666666666666668,  0.084826509508434 ]
    mass: 107.868200
    reduced_to: 1
  - symbol: Ag # 60
    coordinates: [  0.166666666666667,  0.416666666666668,  0.084826509508434 ]
    mass: 107.868200
    reduced_to: 1
  - symbol: Ag # 61
    coordinates: [  0.166666666666667,  0.916666666666668,  0.334826509508434 ]
    mass: 107.868200
    reduced_to: 1
  - symbol: Ag # 62
    coordinates: [  0.333333333333334,  0.666666666666668,  0.334826509508434 ]
    mass: 107.868200
    reduced_to: 1
  - symbol: Ag # 63
    coordinates: [  0.500000000000000,  0.416666666666668,  0.334826509508434 ]
    mass: 107.868200
    reduced_to: 1
  - symbol: Ag # 64
    coordinates: [  0.666666666666667,  0.166666666666668,  0.334826509508434 ]
    mass: 107.868200
    reduced_to: 1
  - symbol: Ag # 65
    coordinates: [  0.833333333333334,  0.916666666666668,  0.334826509508434 ]
    mass: 107.868200
    reduced_to: 1
  - symbol: Ag # 66
    coordinates: [  0.333333333333334,  0.166666666666668,  0.334826509508434 ]
    mass: 107.868200
    reduced_to: 1
  - symbol: Ag # 67
    coordinates: [  0.500000000000001,  0.916666666666668,  0.334826509508434 ]
    mass: 107.868200
    reduced_to: 1
  - symbol: Ag # 68
    coordinates: [  0.666666666666667,  0.666666666666668,  0.334826509508434 ]
    mass: 107.868200
    reduced_to: 1
  - symbol: Ag # 69
    coordinates: [  0.833333333333334,  0.416666666666668,  0.334826509508434 ]
    mass: 107.868200
    reduced_to: 1
  - symbol: Ag # 70
    coordinates: [  0.000000000000001,  0.166666666666668,  0.334826509508434 ]
    mass: 107.868200
    reduced_to: 1
  - symbol: Ag # 71
    coordinates: [  0.000000000000001,  0.666666666666668,  0.334826509508434 ]
    mass: 107.868200
    reduced_to: 1
  - symbol: Ag # 72
    coordinates: [  0.166666666666667,  0.416666666666668,  0.334826509508434 ]
    mass: 107.868200
    reduced_to: 1
  - symbol: Ag # 73
    coordinates: [  0.166666666666667,  0.916666666666668,  0.584826509508434 ]
    mass: 107.868200
    reduced_to: 1
  - symbol: Ag # 74
    coordinates: [  0.333333333333334,  0.666666666666668,  0.584826509508434 ]
    mass: 107.868200
    reduced_to: 1
  - symbol: Ag # 75
    coordinates: [  0.500000000000000,  0.416666666666668,  0.584826509508434 ]
    mass: 107.868200
    reduced_to: 1
  - symbol: Ag # 76
    coordinates: [  0.666666666666667,  0.166666666666668,  0.584826509508434 ]
    mass: 107.868200
    reduced_to: 1
  - symbol: Ag # 77
    coordinates: [  0.833333333333334,  0.916666666666668,  0.584826509508434 ]
    mass: 107.868200
    reduced_to: 1
  - symbol: Ag # 78
    coordinates: [  0.333333333333334,  0.166666666666668,  0.584826509508434 ]
    mass: 107.868200
    reduced_to: 1
  - symbol: Ag # 79
    coordinates: [  0.500000000000001,  0.916666666666668,  0.584826509508434 ]
    mass: 107.868200
    reduced_to: 1
  - symbol: Ag # 80
    coordinates: [  0.666666666666667,  0.666666666666668,  0.584826509508434 ]
    mass: 107.868200
    reduced_to: 1
  - symbol: Ag # 81
    coordinates: [  0.833333333333334,  0.416666666666668,  0.584826509508434 ]
    mass: 107.868200
    reduced_to: 1
  - symbol: Ag # 82
    coordinates: [  0.000000000000001,  0.166666666666668,  0.584826509508434 ]
    mass: 107.868200
    reduced_to: 1
  - symbol: Ag # 83
    coordinates: [  0.000000000000001,  0.666666666666668,  0.584826509508434 ]
    mass: 107.868200
    reduced_to: 1
  - symbol: Ag # 84
    coordinates: [  0.166666666666667,  0.416666666666668,  0.584826509508434 ]
    mass: 107.868200
    reduced_to: 1
  - symbol: Ag # 85
    coordinates: [  0.166666666666667,  0.916666666666668,  0.834826509508434 ]
    mass: 107.868200
    reduced_to: 1
  - symbol: Ag # 86
    coordinates: [  0.333333333333334,  0.666666666666668,  0.834826509508434 ]
    mass: 107.868200
    reduced_to: 1
  - symbol: Ag # 87
    coordinates: [  0.500000000000000,  0.416666666666668,  0.834826509508434 ]
    mass: 107.868200
    reduced_to: 1
  - symbol: Ag # 88
    coordinates: [  0.666666666666667,  0.166666666666668,  0.834826509508434 ]
    mass: 107.868200
    reduced_to: 1
  - symbol: Ag # 89
    coordinates: [  0.833333333333334,  0.916666666666668,  0.834826509508434 ]
    mass: 107.868200
    reduced_to: 1
  - symbol: Ag # 90
    coordinates: [  0.333333333333334,  0.166666666666668,  0.834826509508434 ]
    mass: 107.868200
    reduced_to: 1
  - symbol: Ag # 91
    coordinates: [  0.500000000000001,  0.916666666666668,  0.834826509508434 ]
    mass: 107.868200
    reduced_to: 1
  - symbol: Ag # 92
    coordinates: [  0.666666666666667,  0.666666666666668,  0.834826509508434 ]
    mass: 107.868200
    reduced_to: 1
  - symbol: Ag # 93
    coordinates: [  0.833333333333334,  0.416666666666668,  0.834826509508434 ]
    mass: 107.868200
    reduced_to: 1
  - symbol: Ag # 94
    coordinates: [  0.000000000000001,  0.166666666666668,  0.834826509508434 ]
    mass: 107.868200
    reduced_to: 1
  - symbol: Ag # 95
    coordinates: [  0.000000000000001,  0.666666666666668,  0.834826509508434 ]
    mass: 107.868200
    reduced_to: 1
  - symbol: Ag # 96
    coordinates: [  0.166666666666667,  0.416666666666668,  0.834826509508434 ]
    mass: 107.868200
    reduced_to: 1
  - symbol: Ag # 97
    coordinates: [  0.166666666666667,  0.083333333333335,  0.168159842841768 ]
    mass: 107.868200
    reduced_to: 1
  - symbol: Ag # 98
    coordinates: [  0.333333333333334,  0.833333333333335,  0.168159842841768 ]
    mass: 107.868200
    reduced_to: 1
  - symbol: Ag # 99
    coordinates: [  0.500000000000000,  0.583333333333335,  0.168159842841768 ]
    mass: 107.868200
    reduced_to: 1
  - symbol: Ag # 100
    coordinates: [  0.666666666666667,  0.333333333333334,  0.168159842841768 ]
    mass: 107.868200
    reduced_to: 1
  - symbol: Ag # 101
    coordinates: [  0.833333333333334,  0.083333333333335,  0.168159842841768 ]
    mass: 107.868200
    reduced_to: 1
  - symbol: Ag # 102
    coordinates: [  0.333333333333334,  0.333333333333335,  0.168159842841768 ]
    mass: 107.868200
    reduced_to: 1
  - symbol: Ag # 103
    coordinates: [  0.500000000000001,  0.083333333333335,  0.168159842841768 ]
    mass: 107.868200
    reduced_to: 1
  - symbol: Ag # 104
    coordinates: [  0.666666666666667,  0.833333333333335,  0.168159842841768 ]
    mass: 107.868200
    reduced_to: 1
  - symbol: Ag # 105
    coordinates: [  0.833333333333334,  0.583333333333335,  0.168159842841768 ]
    mass: 107.868200
    reduced_to: 1
  - symbol: Ag # 106
    coordinates: [  0.000000000000001,  0.333333333333335,  0.168159842841768 ]
    mass: 107.868200
    reduced_to: 1
  - symbol: Ag # 107
    coordinates: [  0.000000000000001,  0.833333333333334,  0.168159842841768 ]
    mass: 107.868200
    reduced_to: 1
  - symbol: Ag # 108
    coordinates: [  0.166666666666667,  0.583333333333335,  0.168159842841768 ]
    mass: 107.868200
    reduced_to: 1
  - symbol: Ag # 109
    coordinates: [  0.166666666666667,  0.083333333333335,  0.418159842841768 ]
    mass: 107.868200
    reduced_to: 1
  - symbol: Ag # 110
    coordinates: [  0.333333333333334,  0.833333333333335,  0.418159842841768 ]
    mass: 107.868200
    reduced_to: 1
  - symbol: Ag # 111
    coordinates: [  0.500000000000000,  0.583333333333335,  0.418159842841768 ]
    mass: 107.868200
    reduced_to: 1
  - symbol: Ag # 112
    coordinates: [  0.666666666666667,  0.333333333333334,  0.418159842841768 ]
    mass: 107.868200
    reduced_to: 1
  - symbol: Ag # 113
    coordinates: [  0.833333333333334,  0.083333333333335,  0.418159842841768 ]
    mass: 107.868200
    reduced_to: 1
  - symbol: Ag # 114
    coordinates: [  0.333333333333334,  0.333333333333335,  0.418159842841768 ]
    mass: 107.868200
    reduced_to: 1
  - symbol: Ag # 115
    coordinates: [  0.500000000000001,  0.083333333333335,  0.418159842841768 ]
    mass: 107.868200
    reduced_to: 1
  - symbol: Ag # 116
    coordinates: [  0.666666666666667,  0.833333333333335,  0.418159842841768 ]
    mass: 107.868200
    reduced_to: 1
  - symbol: Ag # 117
    coordinates: [  0.833333333333334,  0.583333333333335,  0.418159842841768 ]
    mass: 107.868200
    reduced_to: 1
  - symbol: Ag # 118
    coordinates: [  0.000000000000001,  0.333333333333335,  0.418159842841768 ]
    mass: 107.868200
    reduced_to: 1
  - symbol: Ag # 119
    coordinates: [  0.000000000000001,  0.833333333333334,  0.418159842841768 ]
    mass: 107.868200
    reduced_to: 1
  - symbol: Ag # 120
    coordinates: [  0.166666666666667,  0.583333333333335,  0.418159842841768 ]
    mass: 107.868200
    reduced_to: 1
  - symbol: Ag # 121
    coordinates: [  0.166666666666667,  0.083333333333335,  0.668159842841768 ]
    mass: 107.868200
    reduced_to: 1
  - symbol: Ag # 122
    coordinates: [  0.333333333333334,  0.833333333333335,  0.668159842841768 ]
    mass: 107.868200
    reduced_to: 1
  - symbol: Ag # 123
    coordinates: [  0.500000000000000,  0.583333333333335,  0.668159842841768 ]
    mass: 107.868200
    reduced_to: 1
  - symbol: Ag # 124
    coordinates: [  0.666666666666667,  0.333333333333334,  0.668159842841768 ]
    mass: 107.868200
    reduced_to: 1
  - symbol: Ag # 125
    coordinates: [  0.833333333333334,  0.083333333333335,  0.668159842841768 ]
    mass: 107.868200
    reduced_to: 1
  - symbol: Ag # 126
    coordinates: [  0.333333333333334,  0.333333333333335,  0.668159842841768 ]
    mass: 107.868200
    reduced_to: 1
  - symbol: Ag # 127
    coordinates: [  0.500000000000001,  0.083333333333335,  0.668159842841768 ]
    mass: 107.868200
    reduced_to: 1
  - symbol: Ag # 128
    coordinates: [  0.666666666666667,  0.833333333333335,  0.668159842841768 ]
    mass: 107.868200
    reduced_to: 1
  - symbol: Ag # 129
    coordinates: [  0.833333333333334,  0.583333333333335,  0.668159842841768 ]
    mass: 107.868200
    reduced_to: 1
  - symbol: Ag # 130
    coordinates: [  0.000000000000001,  0.333333333333335,  0.668159842841768 ]
    mass: 107.868200
    reduced_to: 1
  - symbol: Ag # 131
    coordinates: [  0.000000000000001,  0.833333333333334,  0.668159842841768 ]
    mass: 107.868200
    reduced_to: 1
  - symbol: Ag # 132
    coordinates: [  0.166666666666667,  0.583333333333335,  0.668159842841768 ]
    mass: 107.868200
    reduced_to: 1
  - symbol: Ag # 133
    coordinates: [  0.166666666666667,  0.083333333333335,  0.918159842841768 ]
    mass: 107.868200
    reduced_to: 1
  - symbol: Ag # 134
    coordinates: [  0.333333333333334,  0.833333333333335,  0.918159842841768 ]
    mass: 107.868200
    reduced_to: 1
  - symbol: Ag # 135
    coordinates: [  0.500000000000000,  0.583333333333335,  0.918159842841768 ]
    mass: 107.868200
    reduced_to: 1
  - symbol: Ag # 136
    coordinates: [  0.666666666666667,  0.333333333333334,  0.918159842841768 ]
    mass: 107.868200
    reduced_to: 1
  - symbol: Ag # 137
    coordinates: [  0.833333333333334,  0.083333333333335,  0.918159842841768 ]
    mass: 107.868200
    reduced_to: 1
  - symbol: Ag # 138
    coordinates: [  0.333333333333334,  0.333333333333335,  0.918159842841768 ]
    mass: 107.868200
    reduced_to: 1
  - symbol: Ag # 139
    coordinates: [  0.500000000000001,  0.083333333333335,  0.918159842841768 ]
    mass: 107.868200
    reduced_to: 1
  - symbol: Ag # 140
    coordinates: [  0.666666666666667,  0.833333333333335,  0.918159842841768 ]
    mass: 107.868200
    reduced_to: 1
  - symbol: Ag # 141
    coordinates: [  0.833333333333334,  0.583333333333335,  0.918159842841768 ]
    mass: 107.868200
    reduced_to: 1
  - symbol: Ag # 142
    coordinates: [  0.000000000000001,  0.333333333333335,  0.918159842841768 ]
    mass: 107.868200
    reduced_to: 1
  - symbol: Ag # 143
    coordinates: [  0.000000000000001,  0.833333333333334,  0.918159842841768 ]
    mass: 107.868200
    reduced_to: 1
  - symbol: Ag # 144
    coordinates: [  0.166666666666667,  0.583333333333335,  0.918159842841768 ]
    mass: 107.868200
    reduced_to: 1
  - symbol: Te # 145
    coordinates: [  0.166666666666667,  0.166666793692392,  0.084827190441633 ]
    mass: 127.600000
    reduced_to: 145
  - symbol: Te # 146
    coordinates: [  0.333333333333334,  0.916666793692392,  0.084827190441633 ]
    mass: 127.600000
    reduced_to: 145
  - symbol: Te # 147
    coordinates: [  0.500000000000001,  0.666666793692392,  0.084827190441633 ]
    mass: 127.600000
    reduced_to: 145
  - symbol: Te # 148
    coordinates: [  0.666666666666667,  0.416666793692392,  0.084827190441633 ]
    mass: 127.600000
    reduced_to: 145
  - symbol: Te # 149
    coordinates: [  0.833333333333334,  0.166666793692392,  0.084827190441633 ]
    mass: 127.600000
    reduced_to: 145
  - symbol: Te # 150
    coordinates: [  0.333333333333334,  0.416666793692392,  0.084827190441633 ]
    mass: 127.600000
    reduced_to: 145
  - symbol: Te # 151
    coordinates: [  0.500000000000001,  0.166666793692392,  0.084827190441633 ]
    mass: 127.600000
    reduced_to: 145
  - symbol: Te # 152
    coordinates: [  0.666666666666667,  0.916666793692392,  0.084827190441633 ]
    mass: 127.600000
    reduced_to: 145
  - symbol: Te # 153
    coordinates: [  0.833333333333334,  0.666666793692392,  0.084827190441633 ]
    mass: 127.600000
    reduced_to: 145
  - symbol: Te # 154
    coordinates: [  0.000000000000001,  0.416666793692392,  0.084827190441633 ]
    mass: 127.600000
    reduced_to: 145
  - symbol: Te # 155
    coordinates: [  0.000000000000001,  0.916666793692392,  0.084827190441633 ]
    mass: 127.600000
    reduced_to: 145
  - symbol: Te # 156
    coordinates: [  0.166666666666667,  0.666666793692392,  0.084827190441633 ]
    mass: 127.600000
    reduced_to: 145
  - symbol: Te # 157
    coordinates: [  0.166666666666667,  0.166666793692392,  0.334827190441633 ]
    mass: 127.600000
    reduced_to: 145
  - symbol: Te # 158
    coordinates: [  0.333333333333334,  0.916666793692392,  0.334827190441633 ]
    mass: 127.600000
    reduced_to: 145
  - symbol: Te # 159
    coordinates: [  0.500000000000001,  0.666666793692392,  0.334827190441633 ]
    mass: 127.600000
    reduced_to: 145
  - symbol: Te # 160
    coordinates: [  0.666666666666667,  0.416666793692392,  0.334827190441633 ]
    mass: 127.600000
    reduced_to: 145
  - symbol: Te # 161
    coordinates: [  0.833333333333334,  0.166666793692392,  0.334827190441633 ]
    mass: 127.600000
    reduced_to: 145
  - symbol: Te # 162
    coordinates: [  0.333333333333334,  0.416666793692392,  0.334827190441633 ]
    mass: 127.600000
    reduced_to: 145
  - symbol: Te # 163
    coordinates: [  0.500000000000001,  0.166666793692392,  0.334827190441633 ]
    mass: 127.600000
    reduced_to: 145
  - symbol: Te # 164
    coordinates: [  0.666666666666667,  0.916666793692392,  0.334827190441633 ]
    mass: 127.600000
    reduced_to: 145
  - symbol: Te # 165
    coordinates: [  0.833333333333334,  0.666666793692392,  0.334827190441633 ]
    mass: 127.600000
    reduced_to: 145
  - symbol: Te # 166
    coordinates: [  0.000000000000001,  0.416666793692392,  0.334827190441633 ]
    mass: 127.600000
    reduced_to: 145
  - symbol: Te # 167
    coordinates: [  0.000000000000001,  0.916666793692392,  0.334827190441633 ]
    mass: 127.600000
    reduced_to: 145
  - symbol: Te # 168
    coordinates: [  0.166666666666667,  0.666666793692392,  0.334827190441633 ]
    mass: 127.600000
    reduced_to: 145
  - symbol: Te # 169
    coordinates: [  0.166666666666667,  0.166666793692392,  0.584827190441633 ]
    mass: 127.600000
    reduced_to: 145
  - symbol: Te # 170
    coordinates: [  0.333333333333334,  0.916666793692392,  0.584827190441633 ]
    mass: 127.600000
    reduced_to: 145
  - symbol: Te # 171
    coordinates: [  0.500000000000001,  0.666666793692392,  0.584827190441633 ]
    mass: 127.600000
    reduced_to: 145
  - symbol: Te # 172
    coordinates: [  0.666666666666667,  0.416666793692392,  0.584827190441633 ]
    mass: 127.600000
    reduced_to: 145
  - symbol: Te # 173
    coordinates: [  0.833333333333334,  0.166666793692392,  0.584827190441633 ]
    mass: 127.600000
    reduced_to: 145
  - symbol: Te # 174
    coordinates: [  0.333333333333334,  0.416666793692392,  0.584827190441633 ]
    mass: 127.600000
    reduced_to: 145
  - symbol: Te # 175
    coordinates: [  0.500000000000001,  0.166666793692392,  0.584827190441633 ]
    mass: 127.600000
    reduced_to: 145
  - symbol: Te # 176
    coordinates: [  0.666666666666667,  0.916666793692392,  0.584827190441633 ]
    mass: 127.600000
    reduced_to: 145
  - symbol: Te # 177
    coordinates: [  0.833333333333334,  0.666666793692392,  0.584827190441633 ]
    mass: 127.600000
    reduced_to: 145
  - symbol: Te # 178
    coordinates: [  0.000000000000001,  0.416666793692392,  0.584827190441633 ]
    mass: 127.600000
    reduced_to: 145
  - symbol: Te # 179
    coordinates: [  0.000000000000001,  0.916666793692392,  0.584827190441633 ]
    mass: 127.600000
    reduced_to: 145
  - symbol: Te # 180
    coordinates: [  0.166666666666667,  0.666666793692392,  0.584827190441633 ]
    mass: 127.600000
    reduced_to: 145
  - symbol: Te # 181
    coordinates: [  0.166666666666667,  0.166666793692392,  0.834827190441633 ]
    mass: 127.600000
    reduced_to: 145
  - symbol: Te # 182
    coordinates: [  0.333333333333334,  0.916666793692392,  0.834827190441633 ]
    mass: 127.600000
    reduced_to: 145
  - symbol: Te # 183
    coordinates: [  0.500000000000001,  0.666666793692392,  0.834827190441633 ]
    mass: 127.600000
    reduced_to: 145
  - symbol: Te # 184
    coordinates: [  0.666666666666667,  0.416666793692392,  0.834827190441633 ]
    mass: 127.600000
    reduced_to: 145
  - symbol: Te # 185
    coordinates: [  0.833333333333334,  0.166666793692392,  0.834827190441633 ]
    mass: 127.600000
    reduced_to: 145
  - symbol: Te # 186
    coordinates: [  0.333333333333334,  0.416666793692392,  0.834827190441633 ]
    mass: 127.600000
    reduced_to: 145
  - symbol: Te # 187
    coordinates: [  0.500000000000001,  0.166666793692392,  0.834827190441633 ]
    mass: 127.600000
    reduced_to: 145
  - symbol: Te # 188
    coordinates: [  0.666666666666667,  0.916666793692392,  0.834827190441633 ]
    mass: 127.600000