phonopy:
  version: "2.27.0"
  frequency_unit_conversion_factor: 15.633302
  symmetry_tolerance: 1.00000e-03

space_group:
  type: "Pnma"
  number: 62
  Hall_symbol: "-P 2ac 2n"

primitive_matrix:
- [  0.000000000000000, -1.000000000000000,  0.000000000000000 ]
- [  1.000000000000000,  0.000000000000000,  0.000000000000000 ]
- [  0.000000000000000,  0.000000000000000,  1.000000000000000 ]

supercell_matrix:
- [   7,   0,   0 ]
- [   0,   3,   0 ]
- [   0,   0,   2 ]

primitive_cell:
  lattice:
  - [     0.000000003515572,     9.520774332100448,    -0.000000000000003 ] # a
  - [    -3.801875490599150,    -0.000000001394024,     0.000000000001074 ] # b
  - [    -0.000000000005470,     0.000000000000005,    18.266740809958687 ] # c
  points:
  - symbol: As # 1
    coordinates: [  0.339756688870358,  0.750000002496175,  0.489975046944778 ]
    mass: 74.921600
  - symbol: As # 2
    coordinates: [  0.839756688870357,  0.750000002523112,  0.010024953055221 ]
    mass: 74.921600
  - symbol: As # 3
    coordinates: [  0.660243311129641,  0.249999997503807,  0.510024953055220 ]
    mass: 74.921600
  - symbol: As # 4
    coordinates: [  0.160243311129642,  0.249999997476870,  0.989975046944780 ]
    mass: 74.921600
  - symbol: As # 5
    coordinates: [  0.003352443451496,  0.249999998160672,  0.387465821144755 ]
    mass: 74.921600
  - symbol: As # 6
    coordinates: [  0.503352443451496,  0.249999998131904,  0.112534178855244 ]
    mass: 74.921600
  - symbol: As # 7
    coordinates: [  0.996647556548503,  0.750000001839310,  0.612534178855242 ]
    mass: 74.921600
  - symbol: As # 8
    coordinates: [  0.496647556548500,  0.750000001868077,  0.887465821144759 ]
    mass: 74.921600
  - symbol: Pb # 9
    coordinates: [  0.663862850086639,  0.749999999933201,  0.314177991423502 ]
    mass: 207.200000
  - symbol: Pb # 10
    coordinates: [  0.163862850086639,  0.749999999929118,  0.185822008576497 ]
    mass: 207.200000
  - symbol: Pb # 11
    coordinates: [  0.336137149913360,  0.250000000066781,  0.685822008576497 ]
    mass: 207.200000
  - symbol: Pb # 12
    coordinates: [  0.836137149913361,  0.250000000070864,  0.814177991423503 ]
    mass: 207.200000
  - symbol: S  # 13
    coordinates: [  0.802125366638375,  0.750000002299585,  0.456791217973776 ]
    mass: 32.065000
  - symbol: S  # 14
    coordinates: [  0.302125366638374,  0.750000002319311,  0.043208782026224 ]
    mass: 32.065000
  - symbol: S  # 15
    coordinates: [  0.197874633361625,  0.249999997700397,  0.543208782026224 ]
    mass: 32.065000
  - symbol: S  # 16
    coordinates: [  0.697874633361625,  0.249999997680671,  0.956791217973775 ]
    mass: 32.065000
  - symbol: S  # 17
    coordinates: [  0.493735096831438,  0.249999998007737,  0.417573004690597 ]
    mass: 32.065000
  - symbol: S  # 18
    coordinates: [  0.993735096831437,  0.249999997987349,  0.082426995309403 ]
    mass: 32.065000
  - symbol: S  # 19
    coordinates: [  0.506264903168564,  0.750000001992245,  0.582426995309404 ]
    mass: 32.065000
  - symbol: S  # 20
    coordinates: [  0.006264903168564,  0.750000002012633,  0.917573004690595 ]
    mass: 32.065000
  - symbol: S  # 21
    coordinates: [  0.152917062510977,  0.750000002112323,  0.357622737238046 ]
    mass: 32.065000
  - symbol: S  # 22
    coordinates: [  0.652917062510978,  0.750000002124077,  0.142377262761954 ]
    mass: 32.065000
  - symbol: S  # 23
    coordinates: [  0.847082937489021,  0.249999997887659,  0.642377262761954 ]
    mass: 32.065000
  - symbol: S  # 24
    coordinates: [  0.347082937489022,  0.249999997875905,  0.857622737238045 ]
    mass: 32.065000
  - symbol: S  # 25
    coordinates: [  0.620407702262077,  0.750000000407028,  0.780664338882002 ]
    mass: 32.065000
  - symbol: S  # 26
    coordinates: [  0.120407702262076,  0.750000000396700,  0.719335661117995 ]
    mass: 32.065000
  - symbol: S  # 27
    coordinates: [  0.379592297737926,  0.249999999592954,  0.219335661117993 ]
    mass: 32.065000
  - symbol: S  # 28
    coordinates: [  0.879592297737927,  0.249999999603281,  0.280664338882006 ]
    mass: 32.065000
  reciprocal_lattice: # without 2pi
  - [    -0.000000000038512,     0.105033473656484,    -0.000000000000000 ] # a*
  - [    -0.263028077187874,     0.000000000097124,    -0.000000000000079 ] # b*
  - [     0.000000000000015,     0.000000000000000,     0.054744303343639 ] # c*

unit_cell:
  lattice:
  - [     3.801875490599150,     0.000000001394024,    -0.000000000001074 ] # a
  - [     0.000000003515572,     9.520774332100450,    -0.000000000000003 ] # b
  - [    -0.000000000005470,     0.000000000000005,    18.266740809958687 ] # c
  points:
  - symbol: As # 1
    coordinates: [  0.249999997503825,  0.339756688870358,  0.489975046944778 ]
    mass: 74.921600
    reduced_to: 1
  - symbol: As # 2
    coordinates: [  0.249999997476888,  0.839756688870357,  0.010024953055221 ]
    mass: 74.921600
    reduced_to: 2
  - symbol: As # 3
    coordinates: [  0.750000002496193,  0.660243311129641,  0.510024953055220 ]
    mass: 74.921600
    reduced_to: 3
  - symbol: As # 4
    coordinates: [  0.750000002523130,  0.160243311129642,  0.989975046944780 ]
    mass: 74.921600
    reduced_to: 4
  - symbol: As # 5
    coordinates: [  0.750000001839328,  0.003352443451496,  0.387465821144755 ]
    mass: 74.921600
    reduced_to: 5
  - symbol: As # 6
    coordinates: [  0.750000001868096,  0.503352443451496,  0.112534178855244 ]
    mass: 74.921600
    reduced_to: 6
  - symbol: As # 7
    coordinates: [  0.249999998160690,  0.996647556548503,  0.612534178855242 ]
    mass: 74.921600
    reduced_to: 7
  - symbol: As # 8
    coordinates: [  0.249999998131923,  0.496647556548500,  0.887465821144759 ]
    mass: 74.921600
    reduced_to: 8
  - symbol: Pb # 9
    coordinates: [  0.250000000066799,  0.663862850086639,  0.314177991423502 ]
    mass: 207.200000
    reduced_to: 9
  - symbol: Pb # 10
    coordinates: [  0.250000000070882,  0.163862850086639,  0.185822008576497 ]
    mass: 207.200000
    reduced_to: 10
  - symbol: Pb # 11
    coordinates: [  0.749999999933219,  0.336137149913360,  0.685822008576497 ]
    mass: 207.200000
    reduced_to: 11
  - symbol: Pb # 12
    coordinates: [  0.749999999929136,  0.836137149913361,  0.814177991423503 ]
    mass: 207.200000
    reduced_to: 12
  - symbol: S  # 13
    coordinates: [  0.249999997700415,  0.802125366638375,  0.456791217973776 ]
    mass: 32.065000
    reduced_to: 13
  - symbol: S  # 14
    coordinates: [  0.249999997680689,  0.302125366638374,  0.043208782026224 ]
    mass: 32.065000
    reduced_to: 14
  - symbol: S  # 15
    coordinates: [  0.750000002299603,  0.197874633361625,  0.543208782026224 ]
    mass: 32.065000
    reduced_to: 15
  - symbol: S  # 16
    coordinates: [  0.750000002319329,  0.697874633361625,  0.956791217973775 ]
    mass: 32.065000
    reduced_to: 16
  - symbol: S  # 17
    coordinates: [  0.750000001992263,  0.493735096831438,  0.417573004690597 ]
    mass: 32.065000
    reduced_to: 17
  - symbol: S  # 18
    coordinates: [  0.750000002012651,  0.993735096831437,  0.082426995309403 ]
    mass: 32.065000
    reduced_to: 18
  - symbol: S  # 19
    coordinates: [  0.249999998007755,  0.506264903168564,  0.582426995309404 ]
    mass: 32.065000
    reduced_to: 19
  - symbol: S  # 20
    coordinates: [  0.249999997987367,  0.006264903168564,  0.917573004690595 ]
    mass: 32.065000
    reduced_to: 20
  - symbol: S  # 21
    coordinates: [  0.249999997887677,  0.152917062510977,  0.357622737238046 ]
    mass: 32.065000
    reduced_to: 21
  - symbol: S  # 22
    coordinates: [  0.249999997875923,  0.652917062510978,  0.142377262761954 ]
    mass: 32.065000
    reduced_to: 22
  - symbol: S  # 23
    coordinates: [  0.750000002112341,  0.847082937489021,  0.642377262761954 ]
    mass: 32.065000
    reduced_to: 23
  - symbol: S  # 24
    coordinates: [  0.750000002124095,  0.347082937489022,  0.857622737238045 ]
    mass: 32.065000
    reduced_to: 24
  - symbol: S  # 25
    coordinates: [  0.249999999592972,  0.620407702262077,  0.780664338882002 ]
    mass: 32.065000
    reduced_to: 25
  - symbol: S  # 26
    coordinates: [  0.249999999603300,  0.120407702262076,  0.719335661117995 ]
    mass: 32.065000
    reduced_to: 26
  - symbol: S  # 27
    coordinates: [  0.750000000407046,  0.379592297737926,  0.219335661117993 ]
    mass: 32.065000
    reduced_to: 27
  - symbol: S  # 28
    coordinates: [  0.750000000396719,  0.879592297737927,  0.280664338882006 ]
    mass: 32.065000
    reduced_to: 28

supercell:
  lattice:
  - [    26.613128434194049,     0.000000009758170,    -0.000000000007520 ] # a
  - [     0.000000010546716,    28.562322996301347,    -0.000000000000010 ] # b
  - [    -0.000000000010941,     0.000000000000011,    36.533481619917374 ] # c
  points:
  - symbol: As # 1
    coordinates: [  0.035714285357689,  0.113252229623453,  0.244987523472389 ]
    mass: 74.921600
    reduced_to: 1
  - symbol: As # 2
    coordinates: [  0.178571428214832,  0.113252229623453,  0.244987523472389 ]
    mass: 74.921600
    reduced_to: 1
  - symbol: As # 3
    coordinates: [  0.321428571071975,  0.113252229623453,  0.244987523472389 ]
    mass: 74.921600
    reduced_to: 1
  - symbol: As # 4
    coordinates: [  0.464285713929118,  0.113252229623453,  0.244987523472389 ]
    mass: 74.921600
    reduced_to: 1
  - symbol: As # 5
    coordinates: [  0.607142856786261,  0.113252229623453,  0.244987523472389 ]
    mass: 74.921600
    reduced_to: 1
  - symbol: As # 6
    coordinates: [  0.749999999643404,  0.113252229623453,  0.244987523472389 ]
    mass: 74.921600
    reduced_to: 1
  - symbol: As # 7
    coordinates: [  0.892857142500546,  0.113252229623453,  0.244987523472389 ]
    mass: 74.921600
    reduced_to: 1
  - symbol: As # 8
    coordinates: [  0.035714285357689,  0.446585562956786,  0.244987523472389 ]
    mass: 74.921600
    reduced_to: 1
  - symbol: As # 9
    coordinates: [  0.178571428214832,  0.446585562956786,  0.244987523472389 ]
    mass: 74.921600
    reduced_to: 1
  - symbol: As # 10
    coordinates: [  0.321428571071975,  0.446585562956786,  0.244987523472389 ]
    mass: 74.921600
    reduced_to: 1
  - symbol: As # 11
    coordinates: [  0.464285713929118,  0.446585562956786,  0.244987523472389 ]
    mass: 74.921600
    reduced_to: 1
  - symbol: As # 12
    coordinates: [  0.607142856786261,  0.446585562956786,  0.244987523472389 ]
    mass: 74.921600
    reduced_to: 1
  - symbol: As # 13
    coordinates: [  0.749999999643404,  0.446585562956786,  0.244987523472389 ]
    mass: 74.921600
    reduced_to: 1
  - symbol: As # 14
    coordinates: [  0.892857142500546,  0.446585562956786,  0.244987523472389 ]
    mass: 74.921600
    reduced_to: 1
  - symbol: As # 15
    coordinates: [  0.035714285357689,  0.779918896290119,  0.244987523472389 ]
    mass: 74.921600
    reduced_to: 1
  - symbol: As # 16
    coordinates: [  0.178571428214832,  0.779918896290119,  0.244987523472389 ]
    mass: 74.921600
    reduced_to: 1
  - symbol: As # 17
    coordinates: [  0.321428571071975,  0.779918896290119,  0.244987523472389 ]
    mass: 74.921600
    reduced_to: 1
  - symbol: As # 18
    coordinates: [  0.464285713929118,  0.779918896290119,  0.244987523472389 ]
    mass: 74.921600
    reduced_to: 1
  - symbol: As # 19
    coordinates: [  0.607142856786261,  0.779918896290119,  0.244987523472389 ]
    mass: 74.921600
    reduced_to: 1
  - symbol: As # 20
    coordinates: [  0.749999999643404,  0.779918896290119,  0.244987523472389 ]
    mass: 74.921600
    reduced_to: 1
  - symbol: As # 21
    coordinates: [  0.892857142500546,  0.779918896290119,  0.244987523472389 ]
    mass: 74.921600
    reduced_to: 1
  - symbol: As # 22
    coordinates: [  0.035714285357689,  0.113252229623453,  0.744987523472389 ]
    mass: 74.921600
    reduced_to: 1
  - symbol: As # 23
    coordinates: [  0.178571428214832,  0.113252229623453,  0.744987523472389 ]
    mass: 74.921600
    reduced_to: 1
  - symbol: As # 24
    coordinates: [  0.321428571071975,  0.113252229623453,  0.744987523472389 ]
    mass: 74.921600
    reduced_to: 1
  - symbol: As # 25
    coordinates: [  0.464285713929118,  0.113252229623453,  0.744987523472389 ]
    mass: 74.921600
    reduced_to: 1
  - symbol: As # 26
    coordinates: [  0.607142856786261,  0.113252229623453,  0.744987523472389 ]
    mass: 74.921600
    reduced_to: 1
  - symbol: As # 27
    coordinates: [  0.749999999643404,  0.113252229623453,  0.744987523472389 ]
    mass: 74.921600
    reduced_to: 1
  - symbol: As # 28
    coordinates: [  0.892857142500546,  0.113252229623453,  0.744987523472389 ]
    mass: 74.921600
    reduced_to: 1
  - symbol: As # 29
    coordinates: [  0.035714285357689,  0.446585562956786,  0.744987523472389 ]
    mass: 74.921600
    reduced_to: 1
  - symbol: As # 30
    coordinates: [  0.178571428214832,  0.446585562956786,  0.744987523472389 ]
    mass: 74.921600
    reduced_to: 1
  - symbol: As # 31
    coordinates: [  0.321428571071975,  0.446585562956786,  0.744987523472389 ]
    mass: 74.921600
    reduced_to: 1
  - symbol: As # 32
    coordinates: [  0.464285713929118,  0.446585562956786,  0.744987523472389 ]
    mass: 74.921600
    reduced_to: 1
  - symbol: As # 33
    coordinates: [  0.607142856786261,  0.446585562956786,  0.744987523472389 ]
    mass: 74.921600
    reduced_to: 1
  - symbol: As # 34
    coordinates: [  0.749999999643404,  0.446585562956786,  0.744987523472389 ]
    mass: 74.921600
    reduced_to: 1
  - symbol: As # 35
    coordinates: [  0.892857142500546,  0.446585562956786,  0.744987523472389 ]
    mass: 74.921600
    reduced_to: 1
  - symbol: As # 36
    coordinates: [  0.035714285357689,  0.779918896290119,  0.744987523472389 ]
    mass: 74.921600
    reduced_to: 1
  - symbol: As # 37
    coordinates: [  0.178571428214832,  0.779918896290119,  0.744987523472389 ]
    mass: 74.921600
    reduced_to: 1
  - symbol: As # 38
    coordinates: [  0.321428571071975,  0.779918896290119,  0.744987523472389 ]
    mass: 74.921600
    reduced_to: 1
  - symbol: As # 39
    coordinates: [  0.464285713929118,  0.779918896290119,  0.744987523472389 ]
    mass: 74.921600
    reduced_to: 1
  - symbol: As # 40
    coordinates: [  0.607142856786261,  0.779918896290119,  0.744987523472389 ]
    mass: 74.921600
    reduced_to: 1
  - symbol: As # 41
    coordinates: [  0.749999999643404,  0.779918896290119,  0.744987523472389 ]
    mass: 74.921600
    reduced_to: 1
  - symbol: As # 42
    coordinates: [  0.892857142500546,  0.779918896290119,  0.744987523472389 ]
    mass: 74.921600
    reduced_to: 1
  - symbol: As # 43
    coordinates: [  0.035714285353841,  0.279918896290119,  0.005012476527611 ]
    mass: 74.921600
    reduced_to: 43
  - symbol: As # 44
    coordinates: [  0.178571428210984,  0.279918896290119,  0.005012476527611 ]
    mass: 74.921600
    reduced_to: 43
  - symbol: As # 45
    coordinates: [  0.321428571068127,  0.279918896290119,  0.005012476527611 ]
    mass: 74.921600
    reduced_to: 43
  - symbol: As # 46
    coordinates: [  0.464285713925270,  0.279918896290119,  0.005012476527611 ]
    mass: 74.921600
    reduced_to: 43
  - symbol: As # 47
    coordinates: [  0.607142856782413,  0.279918896290119,  0.005012476527611 ]
    mass: 74.921600
    reduced_to: 43
  - symbol: As # 48
    coordinates: [  0.749999999639555,  0.279918896290119,  0.005012476527611 ]
    mass: 74.921600
    reduced_to: 43
  - symbol: As # 49
    coordinates: [  0.892857142496698,  0.279918896290119,  0.005012476527611 ]
    mass: 74.921600
    reduced_to: 43
  - symbol: As # 50
    coordinates: [  0.035714285353841,  0.613252229623452,  0.005012476527611 ]
    mass: 74.921600
    reduced_to: 43
  - symbol: As # 51
    coordinates: [  0.178571428210984,  0.613252229623452,  0.005012476527611 ]
    mass: 74.921600
    reduced_to: 43
  - symbol: As # 52
    coordinates: [  0.321428571068127,  0.613252229623452,  0.005012476527611 ]
    mass: 74.921600
    reduced_to: 43
  - symbol: As # 53
    coordinates: [  0.464285713925270,  0.613252229623452,  0.005012476527611 ]
    mass: 74.921600
    reduced_to: 43
  - symbol: As # 54
    coordinates: [  0.607142856782413,  0.613252229623452,  0.005012476527611 ]
    mass: 74.921600
    reduced_to: 43
  - symbol: As # 55
    coordinates: [  0.749999999639555,  0.613252229623452,  0.005012476527611 ]
    mass: 74.921600
    reduced_to: 43
  - symbol: As # 56
    coordinates: [  0.892857142496698,  0.613252229623452,  0.005012476527611 ]
    mass: 74.921600
    reduced_to: 43
  - symbol: As # 57
    coordinates: [  0.035714285353841,  0.946585562956786,  0.005012476527611 ]
    mass: 74.921600
    reduced_to: 43
  - symbol: As # 58
    coordinates: [  0.178571428210984,  0.946585562956786,  0.005012476527611 ]
    mass: 74.921600
    reduced_to: 43
  - symbol: As # 59
    coordinates: [  0.321428571068127,  0.946585562956786,  0.005012476527611 ]
    mass: 74.921600
    reduced_to: 43
  - symbol: As # 60
    coordinates: [  0.464285713925270,  0.946585562956786,  0.005012476527611 ]
    mass: 74.921600
    reduced_to: 43
  - symbol: As # 61
    coordinates: [  0.607142856782413,  0.946585562956786,  0.005012476527611 ]
    mass: 74.921600
    reduced_to: 43
  - symbol: As # 62
    coordinates: [  0.749999999639555,  0.946585562956786,  0.005012476527611 ]
    mass: 74.921600
    reduced_to: 43
  - symbol: As # 63
    coordinates: [  0.892857142496698,  0.946585562956786,  0.005012476527611 ]
    mass: 74.921600
    reduced_to: 43
  - symbol: As # 64
    coordinates: [  0.035714285353841,  0.279918896290119,  0.505012476527611 ]
    mass: 74.921600
    reduced_to: 43
  - symbol: As # 65
    coordinates: [  0.178571428210984,  0.279918896290119,  0.505012476527611 ]
    mass: 74.921600
    reduced_to: 43
  - symbol: As # 66
    coordinates: [  0.321428571068127,  0.279918896290119,  0.505012476527611 ]
    mass: 74.921600
    reduced_to: 43
  - symbol: As # 67
    coordinates: [  0.464285713925270,  0.279918896290119,  0.505012476527611 ]
    mass: 74.921600
    reduced_to: 43
  - symbol: As # 68
    coordinates: [  0.607142856782413,  0.279918896290119,  0.505012476527611 ]
    mass: 74.921600
    reduced_to: 43
  - symbol: As # 69
    coordinates: [  0.749999999639555,  0.279918896290119,  0.505012476527611 ]
    mass: 74.921600
    reduced_to: 43
  - symbol: As # 70
    coordinates: [  0.892857142496698,  0.279918896290119,  0.505012476527611 ]
    mass: 74.921600
    reduced_to: 43
  - symbol: As # 71
    coordinates: [  0.035714285353841,  0.613252229623452,  0.505012476527611 ]
    mass: 74.921600
    reduced_to: 43
  - symbol: As # 72
    coordinates: [  0.178571428210984,  0.613252229623452,  0.505012476527611 ]
    mass: 74.921600
    reduced_to: 43
  - symbol: As # 73
    coordinates: [  0.321428571068127,  0.613252229623452,  0.505012476527611 ]
    mass: 74.921600
    reduced_to: 43
  - symbol: As # 74
    coordinates: [  0.464285713925270,  0.613252229623452,  0.505012476527611 ]
    mass: 74.921600
    reduced_to: 43
  - symbol: As # 75
    coordinates: [  0.607142856782413,  0.613252229623452,  0.505012476527611 ]
    mass: 74.921600
    reduced_to: 43
  - symbol: As # 76
    coordinates: [  0.749999999639555,  0.613252229623452,  0.505012476527611 ]
    mass: 74.921600
    reduced_to: 43
  - symbol: As # 77
    coordinates: [  0.892857142496698,  0.613252229623452,  0.505012476527611 ]
    mass: 74.921600
    reduced_to: 43
  - symbol: As # 78
    coordinates: [  0.035714285353841,  0.946585562956786,  0.505012476527611 ]
    mass: 74.921600
    reduced_to: 43
  - symbol: As # 79
    coordinates: [  0.178571428210984,  0.946585562956786,  0.505012476527611 ]
    mass: 74.921600
    reduced_to: 43
  - symbol: As # 80
    coordinates: [  0.321428571068127,  0.946585562956786,  0.505012476527611 ]
    mass: 74.921600
    reduced_to: 43
  - symbol: As # 81
    coordinates: [  0.464285713925270,  0.946585562956786,  0.505012476527611 ]
    mass: 74.921600
    reduced_to: 43
  - symbol: As # 82
    coordinates: [  0.607142856782413,  0.946585562956786,  0.505012476527611 ]
    mass: 74.921600
    reduced_to: 43
  - symbol: As # 83
    coordinates: [  0.749999999639555,  0.946585562956786,  0.505012476527611 ]
    mass: 74.921600
    reduced_to: 43
  - symbol: As # 84
    coordinates: [  0.892857142496698,  0.946585562956786,  0.505012476527611 ]
    mass: 74.921600
    reduced_to: 43
  - symbol: As # 85
    coordinates: [  0.107142857499456,  0.220081103709880,  0.255012476527610 ]
    mass: 74.921600
    reduced_to: 85
  - symbol: As # 86
    coordinates: [  0.250000000356599,  0.220081103709880,  0.255012476527610 ]
    mass: 74.921600
    reduced_to: 85
  - symbol: As # 87
    coordinates: [  0.392857143213742,  0.220081103709880,  0.255012476527610 ]
    mass: 74.921600
    reduced_to: 85
  - symbol: As # 88
    coordinates: [  0.535714286070885,  0.220081103709880,  0.255012476527610 ]
    mass: 74.921600
    reduced_to: 85
  - symbol: As # 89
    coordinates: [  0.678571428928028,  0.220081103709880,  0.255012476527610 ]
    mass: 74.921600
    reduced_to: 85
  - symbol: As # 90
    coordinates: [  0.821428571785170,  0.220081103709880,  0.255012476527610 ]
    mass: 74.921600
    reduced_to: 85
  - symbol: As # 91
    coordinates: [  0.964285714642313,  0.220081103709880,  0.255012476527610 ]
    mass: 74.921600
    reduced_to: 85
  - symbol: As # 92
    coordinates: [  0.107142857499456,  0.553414437043214,  0.255012476527610 ]
    mass: 74.921600
    reduced_to: 85
  - symbol: As # 93
    coordinates: [  0.250000000356599,  0.553414437043214,  0.255012476527610 ]
    mass: 74.921600
    reduced_to: 85
  - symbol: As # 94
    coordinates: [  0.392857143213742,  0.553414437043214,  0.255012476527610 ]
    mass: 74.921600
    reduced_to: 85
  - symbol: As # 95
    coordinates: [  0.535714286070885,  0.553414437043214,  0.255012476527610 ]
    mass: 74.921600
    reduced_to: 85
  - symbol: As # 96
    coordinates: [  0.678571428928028,  0.553414437043214,  0.255012476527610 ]
    mass: 74.921600
    reduced_to: 85
  - symbol: As # 97
    coordinates: [  0.821428571785170,  0.553414437043214,  0.255012476527610 ]
    mass: 74.921600
    reduced_to: 85
  - symbol: As # 98
    coordinates: [  0.964285714642313,  0.553414437043214,  0.255012476527610 ]
    mass: 74.921600
    reduced_to: 85
  - symbol: As # 99
    coordinates: [  0.107142857499456,  0.886747770376547,  0.255012476527610 ]
    mass: 74.921600
    reduced_to: 85
  - symbol: As # 100
    coordinates: [  0.250000000356599,  0.886747770376547,  0.255012476527610 ]
    mass: 74.921600
    reduced_to: 85
  - symbol: As # 101
    coordinates: [  0.392857143213742,  0.886747770376547,  0.255012476527610 ]
    mass: 74.921600
    reduced_to: 85
  - symbol: As # 102
    coordinates: [  0.535714286070885,  0.886747770376547,  0.255012476527610 ]
    mass: 74.921600
    reduced_to: 85
  - symbol: As # 103
    coordinates: [  0.678571428928028,  0.886747770376547,  0.255012476527610 ]
    mass: 74.921600
    reduced_to: 85
  - symbol: As # 104
    coordinates: [  0.821428571785170,  0.886747770376547,  0.255012476527610 ]
    mass: 74.921600
    reduced_to: 85
  - symbol: As # 105
    coordinates: [  0.964285714642313,  0.886747770376547,  0.255012476527610 ]
    mass: 74.921600
    reduced_to: 85
  - symbol: As # 106
    coordinates: [  0.107142857499456,  0.220081103709880,  0.755012476527610 ]
    mass: 74.921600
    reduced_to: 85
  - symbol: As # 107
    coordinates: [  0.250000000356599,  0.220081103709880,  0.755012476527610 ]
    mass: 74.921600
    reduced_to: 85
  - symbol: As # 108
    coordinates: [  0.392857143213742,  0.220081103709880,  0.755012476527610 ]
    mass: 74.921600
    reduced_to: 85
  - symbol: As # 109
    coordinates: [  0.535714286070885,  0.220081103709880,  0.755012476527610 ]
    mass: 74.921600
    reduced_to: 85
  - symbol: As # 110
    coordinates: [  0.678571428928028,  0.220081103709880,  0.755012476527610 ]
    mass: 74.921600
    reduced_to: 85
  - symbol: As # 111
    coordinates: [  0.821428571785170,  0.220081103709880,  0.755012476527610 ]
    mass: 74.921600
    reduced_to: 85
  - symbol: As # 112
    coordinates: [  0.964285714642313,  0.220081103709880,  0.755012476527610 ]
    mass: 74.921600
    reduced_to: 85
  - symbol: As # 113
    coordinates: [  0.107142857499456,  0.553414437043214,  0.755012476527610 ]
    mass: 74.921600
    reduced_to: 85
  - symbol: As # 114
    coordinates: [  0.250000000356599,  0.553414437043214,  0.755012476527610 ]
    mass: 74.921600
    reduced_to: 85
  - symbol: As # 115
    coordinates: [  0.392857143213742,  0.553414437043214,  0.755012476527610 ]
    mass: 74.921600
    reduced_to: 85
  - symbol: As # 116
    coordinates: [  0.535714286070885,  0.553414437043214,  0.755012476527610 ]
    mass: 74.921600
    reduced_to: 85
  - symbol: As # 117
    coordinates: [  0.678571428928028,  0.553414437043214,  0.755012476527610 ]
    mass: 74.921600
    reduced_to: 85
  - symbol: As # 118
    coordinates: [  0.821428571785170,  0.553414437043214,  0.755012476527610 ]
    mass: 74.921600
    reduced_to: 85
  - symbol: As # 119
    coordinates: [  0.964285714642313,  0.553414437043214,  0.755012476527610 ]
    mass: 74.921600
    reduced_to: 85
  - symbol: As # 120
    coordinates: [  0.107142857499456,  0.886747770376547,  0.755012476527610 ]
    mass: 74.921600
    reduced_to: 85
  - symbol: As # 121
    coordinates: [  0.250000000356599,  0.886747770376547,  0.755012476527610 ]
    mass: 74.921600
    reduced_to: 85
  - symbol: As # 122
    coordinates: [  0.392857143213742,  0.886747770376547,  0.755012476527610 ]
    mass: 74.921600
    reduced_to: 85
  - symbol: As # 123
    coordinates: [  0.535714286070885,  0.886747770376547,  0.755012476527610 ]
    mass: 74.921600
    reduced_to: 85
  - symbol: As # 124
    coordinates: [  0.678571428928028,  0.886747770376547,  0.755012476527610 ]
    mass: 74.921600
    reduced_to: 85
  - symbol: As # 125
    coordinates: [  0.821428571785170,  0.886747770376547,  0.755012476527610 ]
    mass: 74.921600
    reduced_to: 85
  - symbol: As # 126
    coordinates: [  0.964285714642313,  0.886747770376547,  0.755012476527610 ]
    mass: 74.921600
    reduced_to: 85
  - symbol: As # 127
    coordinates: [  0.107142857503304,  0.053414437043214,  0.494987523472390 ]
    mass: 74.921600
    reduced_to: 127
  - symbol: As # 128
    coordinates: [  0.250000000360447,  0.053414437043214,  0.494987523472390 ]
    mass: 74.921600
    reduced_to: 127
  - symbol: As # 129
    coordinates: [  0.392857143217590,  0.053414437043214,  0.494987523472390 ]
    mass: 74.921600
    reduced_to: 127
  - symbol: As # 130
    coordinates: [  0.535714286074733,  0.053414437043214,  0.494987523472390 ]
    mass: 74.921600
    reduced_to: 127
  - symbol: As # 131
    coordinates: [  0.678571428931876,  0.053414437043214,  0.494987523472390 ]
    mass: 74.921600
    reduced_to: 127
  - symbol: As # 132
    coordinates: [  0.821428571789019,  0.053414437043214,  0.494987523472390 ]
    mass: 74.921600
    reduced_to: 127
  - symbol: As # 133
    coordinates: [  0.964285714646161,  0.053414437043214,  0.494987523472390 ]
    mass: 74.921600
    reduced_to: 127
  - symbol: As # 134
    coordinates: [  0.107142857503304,  0.386747770376547,  0.494987523472390 ]
    mass: 74.921600
    reduced_to: 127
  - symbol: As # 135
    coordinates: [  0.250000000360447,  0.386747770376547,  0.494987523472390 ]
    mass: 74.921600
    reduced_to: 127
  - symbol: As # 136
    coordinates: [  0.392857143217590,  0.386747770376547,  0.494987523472390 ]
    mass: 74.921600
    reduced_to: 127
  - symbol: As # 137
    coordinates: [  0.535714286074733,  0.386747770376547,  0.494987523472390 ]
    mass: 74.921600
    reduced_to: 127
  - symbol: As # 138
    coordinates: [  0.678571428931876,  0.386747770376547,  0.494987523472390 ]
    mass: 74.921600
    reduced_to: 127
  - symbol: As # 139
    coordinates: [  0.821428571789019,  0.386747770376547,  0.494987523472390 ]
    mass: 74.921600
    reduced_to: 127
  - symbol: As # 140
    coordinates: [  0.964285714646161,  0.386747770376547,  0.494987523472390 ]
    mass: 74.921600
    reduced_to: 127
  - symbol: As # 141
    coordinates: [  0.107142857503304,  0.720081103709881,  0.494987523472390 ]
    mass: 74.921600
    reduced_to: 127
  - symbol: As # 142
    coordinates: [  0.250000000360447,  0.720081103709881,  0.494987523472390 ]
    mass: 74.921600
    reduced_to: 127
  - symbol: As # 143
    coordinates: [  0.392857143217590,  0.720081103709881,  0.494987523472390 ]
    mass: 74.921600
    reduced_to: 127
  - symbol: As # 144
    coordinates: [  0.535714286074733,  0.720081103709881,  0.494987523472390 ]
    mass: 74.921600
    reduced_to: 127
  - symbol: As # 145
    coordinates: [  0.678571428931876,  0.720081103709881,  0.494987523472390 ]
    mass: 74.921600
    reduced_to: 127
  - symbol: As # 146
    coordinates: [  0.821428571789019,  0.720081103709881,  0.494987523472390 ]
    mass: 74.921600
    reduced_to: 127
  - symbol: As # 147
    coordinates: [  0.964285714646161,  0.720081103709881,  0.494987523472390 ]
    mass: 74.921600
    reduced_to: 127
  - symbol: As # 148
    coordinates: [  0.107142857503304,  0.053414437043214,  0.994987523472390 ]
    mass: 74.921600
    reduced_to: 127
  - symbol: As # 149
    coordinates: [  0.250000000360447,  0.053414437043214,  0.994987523472390 ]
    mass: 74.921600
    reduced_to: 127
  - symbol: As # 150
    coordinates: [  0.392857143217590,  0.053414437043214,  0.994987523472390 ]
    mass: 74.921600
    reduced_to: 127
  - symbol: As # 151
    coordinates: [  0.535714286074733,  0.053414437043214,  0.994987523472390 ]
    mass: 74.921600
    reduced_to: 127
  - symbol: As # 152
    coordinates: [  0.678571428931876,  0.053414437043214,  0.994987523472390 ]
    mass: 74.921600
    reduced_to: 127
  - symbol: As # 153