nqpoint: 612    
npath: 12     
segment_nqpoint:
- 51
- 51
- 51
- 51
- 51
- 51
- 51
- 51
- 51
- 51
- 51
- 51
labels:
- [ '$\Gamma$', '$\mathrm{X}$' ]
- [ '$\mathrm{X}$', '$\mathrm{S}$' ]
- [ '$\mathrm{S}$', '$\mathrm{Y}$' ]
- [ '$\mathrm{Y}$', '$\Gamma$' ]
- [ '$\Gamma$', '$\mathrm{Z}$' ]
- [ '$\mathrm{Z}$', '$\mathrm{U}$' ]
- [ '$\mathrm{U}$', '$\mathrm{R}$' ]
- [ '$\mathrm{R}$', '$\mathrm{T}$' ]
- [ '$\mathrm{T}$', '$\mathrm{Z}$' ]
- [ '$\mathrm{X}$', '$\mathrm{U}$' ]
- [ '$\mathrm{Y}$', '$\mathrm{T}$' ]
- [ '$\mathrm{S}$', '$\mathrm{R}$' ]
reciprocal_lattice:
- [  -0.00000000,  -0.00000000,   0.08474491 ] # a*
- [   0.26009609,   0.00000000,   0.00000000 ] # b*
- [   0.00000000,   0.08797287,   0.00000000 ] # c*
natom: 20     
lattice:
- [     0.000000000000000,     0.000000000000000,    11.800118449999999 ] # a
- [     3.844732910000000,     0.000000000000000,     0.000000000000000 ] # b
- [    -0.000000000000001,    11.367141139999999,     0.000000000000001 ] # c
points:
- symbol: Sb # 1
  coordinates: [  0.857350400000000,  0.750000000000000,  0.465583620000000 ]
  mass: 121.760000
- symbol: Sb # 2
  coordinates: [  0.142649600000000,  0.250000000000000,  0.534416380000000 ]
  mass: 121.760000
- symbol: Sb # 3
  coordinates: [  0.642649600000000,  0.250000000000000,  0.965583620000000 ]
  mass: 121.760000
- symbol: Sb # 4
  coordinates: [  0.357350400000000,  0.750000000000000,  0.034416380000000 ]
  mass: 121.760000
- symbol: Sb # 5
  coordinates: [  0.966943600000000,  0.250000000000000,  0.173082670000000 ]
  mass: 121.760000
- symbol: Sb # 6
  coordinates: [  0.033056400000000,  0.750000000000000,  0.826917330000000 ]
  mass: 121.760000
- symbol: Sb # 7
  coordinates: [  0.533056400000000,  0.750000000000000,  0.673082670000000 ]
  mass: 121.760000
- symbol: Sb # 8
  coordinates: [  0.466943600000000,  0.250000000000000,  0.326917330000000 ]
  mass: 121.760000
- symbol: S  # 9
  coordinates: [  0.875927160000000,  0.750000000000000,  0.061469490000000 ]
  mass: 32.065000
- symbol: S  # 10
  coordinates: [  0.124072840000000,  0.250000000000000,  0.938530510000000 ]
  mass: 32.065000
- symbol: S  # 11
  coordinates: [  0.624072840000000,  0.250000000000000,  0.561469490000000 ]
  mass: 32.065000
- symbol: S  # 12
  coordinates: [  0.375927160000000,  0.750000000000000,  0.438530510000000 ]
  mass: 32.065000
- symbol: S  # 13
  coordinates: [  0.048541450000000,  0.750000000000000,  0.379232040000000 ]
  mass: 32.065000
- symbol: S  # 14
  coordinates: [  0.951458550000000,  0.250000000000000,  0.620767960000000 ]
  mass: 32.065000
- symbol: S  # 15
  coordinates: [  0.451458550000000,  0.250000000000000,  0.879232040000000 ]
  mass: 32.065000
- symbol: S  # 16
  coordinates: [  0.548541450000000,  0.750000000000000,  0.120767960000000 ]
  mass: 32.065000
- symbol: S  # 17
  coordinates: [  0.300249270000000,  0.250000000000000,  0.188547610000000 ]
  mass: 32.065000
- symbol: S  # 18
  coordinates: [  0.699750730000000,  0.750000000000000,  0.811452390000000 ]
  mass: 32.065000
- symbol: S  # 19
  coordinates: [  0.199750730000000,  0.750000000000000,  0.688547610000000 ]
  mass: 32.065000
- symbol: S  # 20
  coordinates: [  0.800249270000000,  0.250000000000000,  0.311452390000000 ]
  mass: 32.065000

phonon:
- q-position: [    0.0000000,    0.0000000,    0.0000000 ]
  distance:    0.0000000
  band:
  - # 1
    frequency:   -0.0036939670
  - # 2
    frequency:   -0.0024544369
  - # 3
    frequency:   -0.0019299244
  - # 4
    frequency:    0.3141503886
  - # 5
    frequency:    0.8192575628
  - # 6
    frequency:    0.8862175422
  - # 7
    frequency:    1.1530398266
  - # 8
    frequency:    1.2435405065
  - # 9
    frequency:    1.2912162214
  - # 10
    frequency:    1.2939788526
  - # 11
    frequency:    1.4382437446
  - # 12
    frequency:    1.5502661399
  - # 13
    frequency:    1.5684111790
  - # 14
    frequency:    1.6805152768
  - # 15
    frequency:    1.7246790393
  - # 16
    frequency:    1.7399621159
  - # 17
    frequency:    2.0373181215
  - # 18
    frequency:    2.2765075661
  - # 19
    frequency:    2.3137990461
  - # 20
    frequency:    2.4538238911
  - # 21
    frequency:    3.0165371732
  - # 22
    frequency:    3.2337246090
  - # 23
    frequency:    3.3367430667
  - # 24
    frequency:    3.3400448804
  - # 25
    frequency:    3.4223893248
  - # 26
    frequency:    3.5022571559
  - # 27
    frequency:    3.5122257360
  - # 28
    frequency:    3.5992317087
  - # 29
    frequency:    4.2461757213
  - # 30
    frequency:    4.3289104722
  - # 31
    frequency:    5.3183823890
  - # 32
    frequency:    5.3248021001
  - # 33
    frequency:    5.3664653393
  - # 34
    frequency:    5.4300619523
  - # 35
    frequency:    5.7738521951
  - # 36
    frequency:    5.8495320359
  - # 37
    frequency:    5.8667834791
  - # 38
    frequency:    5.9030068035
  - # 39
    frequency:    5.9579478848
  - # 40
    frequency:    5.9615269372
  - # 41
    frequency:    6.3674169875
  - # 42
    frequency:    6.4028708924
  - # 43
    frequency:    6.5750461488
  - # 44
    frequency:    6.6031008126
  - # 45
    frequency:    7.0465367156
  - # 46
    frequency:    7.0919665143
  - # 47
    frequency:    7.3929147026
  - # 48
    frequency:    7.4397276333
  - # 49
    frequency:    7.6642522021
  - # 50
    frequency:    7.8265949754
  - # 51
    frequency:    8.2246529608
  - # 52
    frequency:    8.5787454765
  - # 53
    frequency:    8.6458873858
  - # 54
    frequency:    8.8521221790
  - # 55
    frequency:    8.8667917673
  - # 56
    frequency:    9.0603427388
  - # 57
    frequency:    9.1275710373
  - # 58
    frequency:    9.1529569454
  - # 59
    frequency:    9.6968005210
  - # 60
    frequency:    9.9525011120

- q-position: [    0.0100000,    0.0000000,    0.0000000 ]
  distance:    0.0008474
  band:
  - # 1
    frequency:    0.0030229586
  - # 2
    frequency:    0.0101545723
  - # 3
    frequency:    0.0112958813
  - # 4
    frequency:    0.3140970806
  - # 5
    frequency:    0.8191764123
  - # 6
    frequency:    0.8861492809
  - # 7
    frequency:    1.1530706388
  - # 8
    frequency:    1.2435509537
  - # 9
    frequency:    1.2912032530
  - # 10
    frequency:    1.2939218512
  - # 11
    frequency:    1.4382791168
  - # 12
    frequency:    1.5502449300
  - # 13
    frequency:    1.5684517628
  - # 14
    frequency:    1.6804868914
  - # 15
    frequency:    1.7246827455
  - # 16
    frequency:    1.7399584099
  - # 17
    frequency:    2.0374239484
  - # 18
    frequency:    2.2765827444
  - # 19
    frequency:    2.3137350810
  - # 20
    frequency:    2.4538094282
  - # 21
    frequency:    3.0165980612
  - # 22
    frequency:    3.2336624937
  - # 23
    frequency:    3.3367809135
  - # 24
    frequency:    3.3400525871
  - # 25
    frequency:    3.4223566036
  - # 26
    frequency:    3.5022133489
  - # 27
    frequency:    3.5122662112
  - # 28
    frequency:    3.5992255151
  - # 29
    frequency:    4.2461889286
  - # 30
    frequency:    4.3288855944
  - # 31
    frequency:    5.3183985099
  - # 32
    frequency:    5.3248243473
  - # 33
    frequency:    5.3664489725
  - # 34
    frequency:    5.4300309380
  - # 35
    frequency:    5.7738716927
  - # 36
    frequency:    5.8495141046
  - # 37
    frequency:    5.8667976615
  - # 38
    frequency:    5.9030017975
  - # 39
    frequency:    5.9580748036
  - # 40
    frequency:    5.9615919231
  - # 41
    frequency:    6.3674300889
  - # 42
    frequency:    6.4028678890
  - # 43
    frequency:    6.5750485358
  - # 44
    frequency:    6.6030907657
  - # 45
    frequency:    7.0466614419
  - # 46
    frequency:    7.0920083610
  - # 47
    frequency:    7.3929288406
  - # 48
    frequency:    7.4397464636
  - # 49
    frequency:    7.6643012763
  - # 50
    frequency:    7.8265454798
  - # 51
    frequency:    8.2247564371
  - # 52
    frequency:    8.5787582511
  - # 53
    frequency:    8.6458592635
  - # 54
    frequency:    8.8501947026
  - # 55
    frequency:    8.8686185600
  - # 56
    frequency:    9.0603296166
  - # 57
    frequency:    9.1276080060
  - # 58
    frequency:    9.1529638228
  - # 59
    frequency:    9.6970021479
  - # 60
    frequency:    9.9526128227

- q-position: [    0.0200000,    0.0000000,    0.0000000 ]
  distance:    0.0016949
  band:
  - # 1
    frequency:    0.0069106484
  - # 2
    frequency:    0.0207665844
  - # 3
    frequency:    0.0234834781
  - # 4
    frequency:    0.3139371893
  - # 5
    frequency:    0.8189328746
  - # 6
    frequency:    0.8859443052
  - # 7
    frequency:    1.1531630418
  - # 8
    frequency:    1.2435822899
  - # 9
    frequency:    1.2911643641
  - # 10
    frequency:    1.2937511300
  - # 11
    frequency:    1.4383851698
  - # 12
    frequency:    1.5501813044
  - # 13
    frequency:    1.5685734919
  - # 14
    frequency:    1.6804018818
  - # 15
    frequency:    1.7246938615
  - # 16
    frequency:    1.7399472954
  - # 17
    frequency:    2.0377410588
  - # 18
    frequency:    2.2768081399
  - # 19
    frequency:    2.3135433453
  - # 20
    frequency:    2.4537659420
  - # 21
    frequency:    3.0167805933
  - # 22
    frequency:    3.2334762585
  - # 23
    frequency:    3.3368944256
  - # 24
    frequency:    3.3400759186
  - # 25
    frequency:    3.4222586833
  - # 26
    frequency:    3.5020819799
  - # 27
    frequency:    3.5123874914
  - # 28
    frequency:    3.5992068584
  - # 29
    frequency:    4.2462285628
  - # 30
    frequency:    4.3288109865
  - # 31
    frequency:    5.3184468366
  - # 32
    frequency:    5.3248910752
  - # 33
    frequency:    5.3663999520
  - # 34
    frequency:    5.4299379465
  - # 35
    frequency:    5.7739301638
  - # 36
    frequency:    5.8494603264
  - # 37
    frequency:    5.8668401732
  - # 38
    frequency:    5.9029867752
  - # 39
    frequency:    5.9584545717
  - # 40
    frequency:    5.9617866096
  - # 41
    frequency:    6.3674693712
  - # 42
    frequency:    6.4028588614
  - # 43
    frequency:    6.5750557116
  - # 44
    frequency:    6.6030606405
  - # 45
    frequency:    7.0470351226
  - # 46
    frequency:    7.0921338370
  - # 47
    frequency:    7.3929712674
  - # 48
    frequency:    7.4398027770
  - # 49
    frequency:    7.6644484296
  - # 50
    frequency:    7.8263972117
  - # 51
    frequency:    8.2250667564
  - # 52
    frequency:    8.5787964200
  - # 53
    frequency:    8.6457751386
  - # 54
    frequency:    8.8459140123
  - # 55
    frequency:    8.8725973226
  - # 56
    frequency:    9.0602901562
  - # 57
    frequency:    9.1277187343
  - # 58
    frequency:    9.1529844739
  - # 59
    frequency:    9.6976065285
  - # 60
    frequency:    9.9529472085

- q-position: [    0.0300000,    0.0000000,    0.0000000 ]
  distance:    0.0025423
  band:
  - # 1
    frequency:    0.0105934803
  - # 2
    frequency:    0.0313133097
  - # 3
    frequency:    0.0354743650
  - # 4
    frequency:    0.3136708123
  - # 5
    frequency:    0.8185266911
  - # 6
    frequency:    0.8856020393
  - # 7
    frequency:    1.1533169349
  - # 8
    frequency:    1.2436344983
  - # 9
    frequency:    1.2910996039
  - # 10
    frequency:    1.2934675345
  - # 11
    frequency:    1.4385617133
  - # 12
    frequency:    1.5500752762
  - # 13
    frequency:    1.5687762987
  - # 14
    frequency:    1.6802606873
  - # 15
    frequency:    1.7247123787
  - # 16
    frequency:    1.7399287820
  - # 17
    frequency:    2.0382683436
  - # 18
    frequency:    2.2771833347
  - # 19
    frequency:    2.3132243155
  - # 20
    frequency:    2.4536931426
  - # 21
    frequency:    3.0170843743
  - # 22
    frequency:    3.2331662342
  - # 23
    frequency:    3.3370835178
  - # 24
    frequency:    3.3401155043
  - # 25
    frequency:    3.4220962891
  - # 26
    frequency:    3.5018632049
  - # 27
    frequency:    3.5125891421
  - # 28
    frequency:    3.5991755125
  - # 29
    frequency:    4.2462946607
  - # 30
    frequency:    4.3286867249
  - # 31
    frequency:    5.3185272606
  - # 32
    frequency:    5.3250022433
  - # 33
    frequency:    5.3663185169
  - # 34
    frequency:    5.4297831322
  - # 35
    frequency:    5.7740275430
  - # 36
    frequency:    5.8493707494
  - # 37
    frequency:    5.8669109070
  - # 38
    frequency:    5.9029617231
  - # 39
    frequency:    5.9590842370
  - # 40
    frequency:    5.9621101859
  - # 41
    frequency:    6.3675347686
  - # 42
    frequency:    6.4028437569
  - # 43
    frequency:    6.5750677205
  - # 44
    frequency:    6.6030104828
  - # 45
    frequency:    7.0476562621
  - # 46
    frequency:    7.0923427502
  - # 47
    frequency:    7.3930420229
  - # 48
    frequency:    7.4398960423
  - # 49
    frequency:    7.6646934534
  - # 50
    frequency:    7.8261508238
  - # 51
    frequency:    8.2255835915
  - # 52
    frequency:    8.5788595168
  - # 53
    frequency:    8.6456357340
  - # 54
    frequency:    8.8407533413
  - # 55
    frequency:    8.8772551952
  - # 56
    frequency:    9.0602240795
  - # 57
    frequency:    9.1279026894
  - # 58
    frequency:    9.1530189555
  - # 59
    frequency:    9.6986121633
  - # 60
    frequency:    9.9535020335

- q-position: [    0.0400000,    0.0000000,    0.0000000 ]
  distance:    0.0033898
  band:
  - # 1
    frequency:    0.0142366348
  - # 2
    frequency:    0.0418863512
  - # 3
    frequency:    0.0474256977
  - # 4
    frequency:    0.3132981124
  - # 5
    frequency:    0.8179574342
  - # 6
    frequency:    0.8851215198
  - # 7
    frequency:    1.1535321530
  - # 8
    frequency:    1.2437075512
  - # 9
    frequency:    1.2910090541
  - # 10
    frequency:    1.2930724649
  - # 11
    frequency:    1.4388084309
  - # 12
    frequency:    1.5499268674
  - # 13
    frequency:    1.5690600686
  - # 14
    frequency:    1.6800640377
  - # 15
    frequency:    1.7247382830
  - # 16
    frequency:    1.7399028862
  - # 17
    frequency:    2.0390039615
  - # 18
    frequency:    2.2777076318
  - # 19
    frequency:    2.3127787766
  - # 20
    frequency:    2.4535905544
  - # 21
    frequency:    3.0175087474
  - # 22
    frequency:    3.2327329727
  - # 23
    frequency:    3.3373480479
  - # 24
    frequency:    3.3401723766
  - # 25
    frequency:    3.4218706137
  - # 26
    frequency:    3.5015572836
  - # 27
    frequency:    3.5128704445
  - # 28
    frequency:    3.5991311060
  - # 29
    frequency:    4.2463872831
  - # 30
    frequency:    4.3285129374
  - # 31
    frequency:    5.3186396002
  - # 32
    frequency:    5.3251577837
  - # 33
    frequency:    5.3662050613
  - # 34
    frequency:    5.4295667515
  - # 35
    frequency:    5.7741637213
  - # 36
    frequency:    5.8492454531
  - # 37
    frequency:    5.8670096851
  - # 38
    frequency:    5.9029266192
  - # 39
    frequency:    5.9599589203
  - # 40
    frequency:    5.9625613090
  - # 41
    frequency:    6.3676261719
  - # 42
    frequency:    6.4028224879
  - # 43
    frequency:    6.5750846360
  - # 44
    frequency:    6.6029403693
  - # 45
    frequency:    7.0485223640
  - # 46
    frequency:    7.0926347787
  - # 47
    frequency:    7.3931411752
  - # 48
    frequency:    7.4400253788
  - # 49
    frequency:    7.6650359998
  - # 50
    frequency:    7.8258073944
  - # 51
    frequency:    8.2263064039
  - # 52
    frequency:    8.5789467586
  - # 53
    frequency:    8.6454422429
  - # 54
    frequency:    8.8352018562
  - # 55
    frequency:    8.8821036443
  - # 56
    frequency:    9.0601309360
  - # 57
    frequency:    9.1281589832
  - # 58
    frequency:    9.1530673587
  - # 59
    frequency:    9.7000165549
  - # 60
    frequency:    9.9542735857

- q-position: [    0.0500000,    0.0000000,    0.0000000 ]
  distance:    0.0042372
  band:
  - # 1
    frequency:    0.0178701934
  - # 2
    frequency:    0.0525162631
  - # 3
    frequency:    0.0593697408
  - # 4
    frequency:    0.3128193176
  - # 5
    frequency:    0.8172245103
  - # 6
    frequency:    0.8845013915
  - # 7
    frequency:    1.1538084697
  - # 8
    frequency:    1.2438014095
  - # 9
    frequency:    1.2908928289
  - # 10
    frequency:    1.2925678615
  - # 11
    frequency:    1.4391248811
  - # 12
    frequency:    1.5497361089
  - # 13
    frequency:    1.5694246371
  - # 14
    frequency:    1.6798129497
  - # 15
    frequency:    1.7247715548
  - # 16
    frequency:    1.7398696309
  - # 17
    frequency:    2.0399453496
  - # 18
    frequency:    2.2783800552
  - # 19
    frequency:    2.3122078092
  - # 20
    frequency:    2.4534575274
  - # 21
    frequency:    3.0180527973
  - # 22
    frequency:    3.2321772463
  - # 23
    frequency:    3.3376878169
  - # 24
    frequency:    3.3402479458
  - # 25
    frequency:    3.4215832945
  - # 26
    frequency:    3.5011645790
  - # 27
    frequency:    3.5132304032
  - # 28
    frequency:    3.5990731300
  - # 29
    frequency:    4.2465065142
  - # 30
    frequency:    4.3282898033
  - # 31
    frequency:    5.3187835993
  - # 32
    frequency:    5.3253576014
  - # 33
    frequency:    5.3660601286
  - # 34
    frequency:    5.4292891619
  - # 35
    frequency:    5.7743385467
  - # 36
    frequency:    5.8490845491
  - # 37
    frequency:    5.8671362598
  - # 38
    frequency:    5.9028814326
  - # 39
    frequency:    5.9610718763
  - # 40
    frequency:    5.9631381165
  - # 41
    frequency:    6.3677434281
  - # 42
    frequency:    6.4027949329
  - # 43
    frequency:    6.5751065605
  - # 44
    frequency:    6.6028504070
  - # 45
    frequency:    7.0496299269
  - # 46
    frequency:    7.0930094700
  - # 47
    frequency:    7.3932688246
  - # 48
    frequency:    7.4401895629
  - # 49
    frequency:    7.6654755805
  - # 50
    frequency:    7.8253684135
  - # 51
    frequency:    8.2272344531
  - # 52
    frequency:    8.5790570379
  - # 53
    frequency:    8.6451963109
  - # 54
    frequency:    8.8294220936
  - # 55
    frequency:    8.8869810432
  - # 56
    frequency:    9.0600101206
  - # 57
    frequency:    9.1284863719
  - # 58
    frequency:    9.1531298043
  - # 59
    frequency:    9.7018162117
  - # 60
    frequency:    9.9552566977

- q-position: [    0.0600000,    0.0000000,    0.0000000 ]
  distance:    0.0050847
  band:
  - # 1
    frequency:    0.0215051303
  - # 2
    frequency:    0.0632230208
  - # 3
    frequency:    0.0713187877
  - # 4
    frequency:    0.3122347209
  - # 5
    frequency:    0.8163271659
  - # 6
    frequency:    0.8837399009
  - # 7
    frequency:    1.1541456019
  - # 8
    frequency:    1.2439160226
  - # 9
    frequency:    1.2907510748
  - # 10
    frequency:    1.2919561854
  - # 11
    frequency:    1.4395104991
  - # 12
    frequency:    1.5495030413
  - # 13
    frequency:    1.5698697856
  - # 14
    frequency:    1.6795087202
  - # 15
    frequency:    1.7248121685
  - # 16
    frequency:    1.7398290454
  - # 17
    frequency:    2.0410892388
  - # 18
    frequency:    2.2791993498
  - # 19
    frequency:    2.3115127715
  - # 20
    frequency:    2.4532932517
  - # 21
    frequency:    3.0187153539
  - # 22
    frequency:    3.2315000476
  - # 23
    frequency:    3.3381025689
  - # 24
    frequency:    3.3403439671
  - # 25
    frequency:    3.4212363816
  - # 26
    frequency:    3.5006855568
  - # 27
    frequency:    3.5136677568
  - # 28
    frequency:    3.5990009484
  - # 29
    frequency:    4.2466524610
  - # 30
    frequency:    4.3280175542
  - # 31
    frequency:    5.3189589260
  - # 32
    frequency:    5.3256015743
  - # 33
    frequency:    5.3658844028
  - # 34
    frequency:    5.4289508210
  - # 35
    frequency:    5.7745518237
  - # 36
    frequency:    5.8488881804
  - # 37
    frequency:    5.8672903151
  - # 38
    frequency:    5.9028261244
  - # 39
    frequency:    5.9624145774
  - # 40
    frequency:    5.9638382435
  - # 41
    frequency:    6.3678863410
  - # 42
    frequency:    6.4027609368
  - # 43
    frequency:    6.5751336243
  - # 44
    frequency:    6.6027407334
  - # 45
    frequency:    7.0509744377
  - # 46
    frequency:    7.0934662383
  - # 47
    frequency:    7.3934251076
  - # 48
    frequency:    7.4403870377
  - # 49
    frequency:    7.6660115659
  - # 50
    frequency:    7.8248357628
  - # 51
    frequency:    8.2283668098
  - # 52
    frequency:    8.5791889103
  - # 53
    frequency:    8.6449000130
  - # 54
    frequency:    8.8234801194
  - # 55
    frequency:    8.8918225358
  - # 56
    frequency:    9.0598608974
  - # 57
    frequency:    9.1288832579
  - # 58
    frequency:    9.1532064359
  - # 59
    frequency:    9.7040066518
  - # 60
    frequency:    9.9564447755

- q-position: [    0.0700000,    0.0000000,    0.0000000 ]
  distance:    0.0059321
  band:
  - # 1
    frequency:    0.0251471310
  - # 2
    frequency:    0.0740228634
  - # 3
    frequency:    0.0832792947
  - # 4
    frequency:    0.3115446806
  - # 5
    frequency:    0.8152644946
  - # 6
    frequency:    0.8828348896
  - # 7
    frequency:    1.1545432163
  - # 8
    frequency:    1.2440513281
  - # 9
    frequency:    1.2905839703
  - # 10
    frequency:    1.2912403934
  - # 11
    frequency:    1.4399645992
  - # 12
    frequency:    1.5492277149
  - # 13
    frequency:    1.5703952357
  - # 14
    frequency:    1.6791529186
  - # 15
    frequency:    1.7248600928
  - # 16
    frequency:    1.7397811657
  - # 17
    frequency:    2.0424316752
  - # 18
    frequency:    2.2801639802
  - # 19
    frequency:    2.3106952779
  - # 20
    frequency:    2.4530967761
  - # 21
    frequency:    3.0194949981
  - # 22
    frequency:    3.2307025888
  - # 23
    frequency:    3.3385919909
  - # 24
    frequency:    3.3404624992
  - # 25
    frequency:    3.4208322992
  - # 26
    frequency:    3.5001207844
  - # 27
    frequency:    3.5141809911
  - # 28
    frequency:    3.5989138115
  - # 29
    frequency:    4.2468252520
  - # 30
    frequency:    4.3276964750
  - # 31
    frequency:    5.3191651703
  - # 32
    frequency:    5.3258895529
  - # 33
    frequency:    5.3656786986
  - # 34
    frequency:    5.4285522842
  - # 35
    frequency:    5.7748033141
  - # 36
    frequency:    5.8486565218
  - # 37
    frequency:    5.8674714681
  - # 38
    frequency:    5.9027606473
  - # 39
    frequency:    5.9639768179
  - # 40
    frequency:    5.9646588444
  - # 41
    frequency:    6.3680546714
  - # 42
    frequency:    6.4027203123
  - # 43
    frequency:    6.5751659848
  - # 44
    frequency:    6.6026115164
  - # 45
    frequency:    7.0525503653
  - # 46
    frequency:    7.0940043613
  - # 47
    frequency:    7.3936102024
  - # 48
    frequency:    7.4406159247
  - # 49
    frequency:    7.6666431841
  - # 50
    frequency:    7.8242116917
  - # 51
    frequency:    8.2297023716
  - # 52
    frequency:    8.5793405779
  - # 53
    frequency:    8.6445558231
  - # 54
    frequency:    8.8174081185
  - # 55
    frequency:    8.8965974777
  - # 56
    frequency:    9.0596824278
  - # 57
    frequency:    9.1293476923
  - # 58
    frequency:    9.1532974124
  - # 59
    frequency:    9.7065824096
  - # 60
    frequency:    9.9578298362

- q-position: [    0.0800000,    0.0000000,    0.0000000 ]
  distance:    0.0067796
  band:
  - # 1
    frequency:    0.0287998750
  - # 2
    frequency:    0.0849298793
  - # 3
    frequency:    0.0952553242
  - # 4
    frequency:    0.3107496197
  - # 5
    frequency:    0.8140354456
  - # 6
    frequency:    0.8817837871
  - # 7
    frequency:    1.1550009356
  - # 8
    frequency:    1.2442072517
  - # 9
    frequency:    1.2903917255
  - # 10
    frequency:    1.2904239082
  - # 11
    frequency:    1.4404863766
  - # 12
    frequency:    1.5489101907
  - # 13
    frequency:    1.5710006422
  - # 14
    frequency:    1.6787473734
  - # 15
    frequency:    1.7249152904
  - # 16
    frequency:    1.7397260342
  - # 17
    frequency:    2.0439680461
  - # 18
    frequency:    2.2812721309
  - # 19
    frequency:    2.3097571738
  - # 20
    frequency:    2.4528670278
  - # 21
    frequency:    3.0203900679
  - # 22
    frequency:    3.2297863004
  - # 23
    frequency:    3.3391557128
  - # 24
    frequency:    3.3406058559
  - # 25
    frequency:    3.4203738002
  - # 26
    frequency:    3.4994709305
  - # 27
    frequency:    3.5147683539
  - # 28
    frequency:    3.5988108701
  - # 29
    frequency:    4.2470250358
  - # 30
    frequency:    4.3273269041
  - # 31
    frequency:    5.3194018433
  - # 32
    frequency:    5.3262213603
  - # 33
    frequency:    5.3654439493
  - # 34
    frequency:    5.4280942029
  - # 35
    frequency:    5.7750927374
  - # 36
    frequency:    5.8483897792
  - # 37
    frequency:    5.8676792712
  - # 38
    frequency:    5.9026849465
  - # 39
    frequency:    5.9655966183
  - # 40
    frequency:    5.9657468380
  - # 41
    frequency:    6.3682481376
  - # 42
    frequency:    6.4026728406
  - # 43
    frequency:    6.5752038257
  - # 44
    frequency:    6.6024629538
  - # 45
    frequency:    7.0543511543
  - # 46
    frequency:    7.0946229775
  - # 47
    frequency:    7.3938243354
  - # 48
    frequency:    7.4408740380
  - # 49
    frequency:    7.6673695189
  - # 50
    frequency:    7.8234987886
  - # 51
    frequency:    8.2312398821
  - # 52
    frequency:    8.5795098687
  - # 53
    frequency:    8.6441665801
  - # 54
    frequency:    8.8112243392
  - # 55
    frequency:    8.9012895302
  - # 56
    frequency:    9.0594738010
  - # 57
    frequency:    9.1298773802
  - # 58
    frequency:    9.1534028975
  - # 59
    frequency:    9.7095370436
  - # 60
    frequency:    9.9594025523

- q-position: [    0.0900000,    0.0000000,    0.0000000 ]
  distance:    0.0076270
  band:
  - # 1
    frequency:    0.0324660985
  - # 2
    frequency:    0.0959564491
  - # 3
    frequency:    0.1072496563
  - # 4
    frequency:    0.3098500265
  - # 5
    frequency:    0.8126388334
  - # 6
    frequency:    0.8805836043
  - # 7
    frequency:    1.1555183462
  - # 8
    frequency:    1.2443837067
  - # 9
    frequency:    1.2895105841
  - # 10
    frequency:    1.2901745816
  - # 11
    frequency:    1.4410749109
  - # 12
    frequency:    1.5485505410
  - # 13
    frequency:    1.5716855845
  - # 14
    frequency:    1.6782941574
  - # 15
    frequency:    1.7249777182
  - # 16
    frequency:    1.7396636998
  - # 17
    frequency:    2.0456931124
  - # 18
    frequency:    2.2825217045
  - # 19
    frequency:    2.3087005088
  - # 20
    frequency:    2.4526028345
  - # 21
    frequency:    3.0213986669
  - # 22
    frequency:    3.2287528297
  - # 23
    frequency:    3.3397933074
  - # 24
    frequency:    3.3407765537
  - # 25
    frequency:    3.4198639154
  - # 26
    frequency:    3.4987367633
  - # 27
    frequency:    3.5154278727
  - # 28
    frequency:    3.5986911918
  - # 29
    frequency:    4.2472519798
  - # 30
    frequency:    4.3269092349
  - # 31
    frequency:    5.3196683750
  - # 32
    frequency:    5.3265967925
  - # 33
    frequency:    5.3651811933
  - # 34
    frequency:    5.4275773219
  - # 35
    frequency:    5.7754197708
  - # 36
    frequency:    5.8480881899
  - # 37
    frequency:    5.8679132145
  - # 38
    frequency:    5.9025989599
  - # 39
    frequency:    5.9666478368
  - # 40
    frequency:    5.9677114640
  - # 41
    frequency:    6.3684664155
  - # 42
    frequency:    6.4026182735
  - # 43
    frequency:    6.5752473553
  - # 44
    frequency:    6.6022952735
  - # 45
    frequency:    7.0563692192
  - # 46
    frequency:    7.0953210816
  - # 47
    frequency:    7.3940677877
  - # 48
    frequency:    7.4411589004
  - # 49
    frequency:    7.6681895089
  - # 50
    frequency:    7.8226999481
  - # 51
    frequency:    8.2329779504
  - # 52
    frequency:    8.5796942089
  - # 53
    frequency:    8.6437354479
  - # 54
    frequency:    8.8049406041
  - # 55
    frequency:    8.9058891949
  - # 56
    frequency:    9.0592340656
  - # 57
    frequency:    9.1304696899
  - # 58
    frequency:    9.1535230492
  - # 59
    frequency:    9.7128631456
  - # 60
    frequency:    9.9611523051

- q-position: [    0.1000000,    0.0000000,    0.0000000 ]
  distance:    0.0084745
  band:
  - # 1
    frequency:    0.0361480084
  - # 2
    frequency:    0.1071133626
  - # 3
    frequency:    0.1192642087
  - # 4
    frequency:    0.3088464543
  - # 5
    frequency:    0.8110733500
  - # 6
    frequency:    0.8792309283
  - # 7
    frequency:    1.1560950067
  - # 8
    frequency:    1.2445805940
  - # 9
    frequency:    1.2885046669
  - # 10
    frequency:    1.2899328106
  - # 11
    frequency:    1.4417291693
  - # 12
    frequency:    1.5481488496
  - # 13
    frequency:    1.5724495557
  - # 14
    frequency:    1.6777955661
  - # 15
    frequency:    1.7250473269
  - # 16
    frequency:    1.7395942179
  - # 17
    frequency:    2.0476010478
  - # 18
    frequency:    2.2839103219
  - # 19
    frequency:    2.3075275073
  - # 20
    frequency:    2.4523029467
  - # 21
    frequency:    3.0225186731
  - # 22
    frequency:    3.2276040371
  - # 23
    frequency:    3.3405042901
  - # 24
    frequency:    3.3409772537
  - # 25
    frequency:    3.4193058997
  - # 26
    frequency:    3.4979191499
  - # 27
    frequency:    3.5161573723
  - # 28
    frequency:    3.5985537785
  - # 29
    frequency:    4.2475062683
  - # 30
    frequency:    4.3264439167
  - # 31
    frequency:    5.3199641139
  - # 32
    frequency:    5.3270156175
  - # 33
    frequency:    5.3648915601
  - # 34
    frequency:    5.4270024769
  - # 35
    frequency:    5.7757840498
  - # 36
    frequency:    5.8477520222
  - # 37
    frequency:    5.8681727282
  - # 38
    frequency:    5.9025026187
  - # 39
    frequency:    5.9678083762
  - # 40
    frequency:    5.9698562626
  - # 41
    frequency:    6.3687091394
  - # 42
    frequency:    6.4025563347
  - # 43
    frequency:    6.5752968055
  - # 44
    frequency:    6.6021087334
  - # 45