480  
20   

1    
  0.0071224593808210   0.0070192999913492   0.0000000000000000
  -0.0382560900   -0.0382662800    0.0188842200
   0.0108827400   -0.0077237700    0.0008039900
   0.0015403100    0.0002280700    0.0039468700
   0.0010834900    0.0003613200    0.0040627600
   0.0020124300   -0.0002669400    0.0038069500
   0.0142318400   -0.0111876100   -0.0020446600
  -0.0003904300    0.0006570900    0.0041365200
  -0.0001778600    0.0005947700    0.0040904000
   0.0001769700    0.0003950800    0.0039782700
   0.0003003100    0.0002828600    0.0039446600
   0.0002065900    0.0003641300    0.0040285500
  -0.0001191300    0.0005326200    0.0040855300
  -0.0000933600    0.0002514900    0.0039801100
  -0.0000300000    0.0002493300    0.0039818200
   0.0000571700    0.0002636600    0.0039815300
   0.0000775500    0.0002780000    0.0039732500
   0.0000398000    0.0002814600    0.0039726700
  -0.0000497300    0.0002698800    0.0039741600
  -0.0000486600    0.0003364000    0.0039791100
  -0.0000381800    0.0003367200    0.0039813600
   0.0000249600    0.0003196500    0.0039743200
   0.0000602000    0.0003108400    0.0039672700
   0.0000284700    0.0003160000    0.0039676300
  -0.0000279700    0.0003262000    0.0039733000
  -0.0001336400   -0.0003488100   -0.0039287500
  -0.0001289300   -0.0003442200   -0.0039864900
   0.0000545800   -0.0003157800   -0.0040305400
   0.0000988000   -0.0003161500   -0.0039683800
   0.0000921800   -0.0003228700   -0.0039137700
   0.0000187600   -0.0003526700   -0.0038648900
  -0.0000455800   -0.0002218000   -0.0039494400
  -0.0000638600   -0.0002408200   -0.0039639700
  -0.0000122500   -0.0002629200   -0.0039786600
   0.0000452300   -0.0002680800   -0.0039790700
   0.0000552700   -0.0002573900   -0.0039771000
   0.0000216700   -0.0002274600   -0.0039616400
   0.0003466600   -0.0042808100   -0.0060833400
  -0.0047834100   -0.0095751600    0.0067705600
   0.0012742000   -0.0008894600   -0.0035793600
   0.0010477800   -0.0002804800   -0.0038578200
   0.0013480100    0.0000288000   -0.0040024900
   0.0011820900   -0.0009803900   -0.0055702700
  -0.0002665000    0.0002520600   -0.0038142800
  -0.0005056700    0.0000032900   -0.0037938900
  -0.0000284100   -0.0002483600   -0.0039614900
   0.0002569000   -0.0002759700   -0.0039815200
   0.0002872900   -0.0002446200   -0.0039858000
   0.0002600000    0.0000490000   -0.0038201400
  -0.0012372500    0.0006599200   -0.0041379400
   0.0001397400    0.0010375100   -0.0044463100
   0.0005070300    0.0007187700   -0.0040931300
   0.0003728900    0.0003437500   -0.0039519800
   0.0002509400    0.0002174000   -0.0038953900
  -0.0000763300    0.0000482900   -0.0038512500
  -0.0003657900    0.0015557400   -0.0033527200
  -0.0007278400    0.0001395600   -0.0038279300
  -0.0001103100    0.0000830400   -0.0039628700
   0.0002501900    0.0002174200   -0.0040506900
   0.0003729700    0.0003434000   -0.0038971000
   0.0005384900    0.0006841100   -0.0036416000
  -0.0001264600    0.0002676600   -0.0039040900
  -0.0001041900    0.0003052900   -0.0038816800
   0.0000172200    0.0002880800   -0.0038448900
   0.0001740800    0.0002774600   -0.0039052700
   0.0000990000    0.0003028500   -0.0039948100
  -0.0000640300    0.0002716600   -0.0039704500
  -0.0000971900    0.0002982400   -0.0040328000
  -0.0001331000    0.0002750000   -0.0039843500
  -0.0000315400    0.0002378500   -0.0039351400
   0.0001490600    0.0002512000   -0.0039413100
   0.0001241500    0.0003289900   -0.0040104800
  -0.0000157200    0.0003216500   -0.0040369500
  -0.0004363200   -0.0003592600    0.0042819900
  -0.0001447500   -0.0004650200    0.0040138500
   0.0000916200   -0.0003394900    0.0039716200
   0.0002075000   -0.0002740300    0.0039819000
   0.0002539700   -0.0002478400    0.0040619800
  -0.0000070000   -0.0002121000    0.0043780400
  -0.0001981300   -0.0001422000    0.0037873700
  -0.0001617000   -0.0000924900    0.0037327500
   0.0003914800   -0.0000273400    0.0037568800
   0.0003091300   -0.0003377200    0.0039829300
   0.0000752200   -0.0004875400    0.0040820500
  -0.0003558700   -0.0002599900    0.0038585700
  -0.0004354000   -0.0003578600    0.0037317400
  -0.0001992400   -0.0004094000    0.0039908400
   0.0001284300   -0.0003778100    0.0039997400
   0.0002074500   -0.0002737800    0.0039445900
   0.0002172400   -0.0002097900    0.0038133900
   0.0000469900   -0.0002660200    0.0036051900
  -0.0001980600   -0.0001421900    0.0042045600
  -0.0001769100   -0.0000768400    0.0042897300
   0.0004543100   -0.0000932700    0.0044187700
   0.0003085500   -0.0003377800    0.0039277700
   0.0000114100   -0.0004210600    0.0038459100
  -0.0003395300   -0.0002759800    0.0041217000
   0.0005465700    0.0171993500   -0.0120990600
  -0.0039334400    0.0031691800   -0.0000705400
   0.0002227900    0.0028012700   -0.0018101100
   0.0007802200    0.0041661900   -0.0020339400
   0.0008528100    0.0043488800   -0.0023359800
   0.0018182800    0.0045201400   -0.0032243100
  -0.0004587500    0.0047384700   -0.0023619300
  -0.0003429300    0.0050704500   -0.0022715900
   0.0003386100    0.0052136000   -0.0025528700
   0.0003508200    0.0044552000   -0.0022628700
   0.0002490900    0.0041585700   -0.0021062800
  -0.0001514400    0.0042108800   -0.0021147200
  -0.0000472000    0.0042179900   -0.0021358700
  -0.0000557200    0.0042150900   -0.0022127600
  -0.0000044400    0.0042315300   -0.0022147800
   0.0000445400    0.0042522900   -0.0022037200
   0.0000508100    0.0042643500   -0.0021862800
   0.0000109400    0.0042445100   -0.0021537500
  -0.0000467600    0.0043075900   -0.0022161400
  -0.0000381400    0.0043301400   -0.0022239000
   0.0000113100    0.0043227600   -0.0022276500
   0.0000502200    0.0043003500   -0.0022236500
   0.0000361700    0.0042848800   -0.0022086300
  -0.0000129700    0.0042864100   -0.0022117400
  -0.0000557000   -0.0043073200    0.0022094700
  -0.0000184300   -0.0042613200    0.0022028600
   0.0000444100   -0.0042834700    0.0022054400
   0.0000623800   -0.0043012400    0.0022122500
   0.0000142500   -0.0043282400    0.0022173400
  -0.0000453200   -0.0043481400    0.0022153700
  -0.0001230800   -0.0042174600    0.0022174600
  -0.0000504900   -0.0042535500    0.0022118400
   0.0000237400   -0.0042662900    0.0022123400
   0.0000601000   -0.0042487100    0.0022094800
   0.0000758600   -0.0042118300    0.0022031600
   0.0000142000   -0.0042003200    0.0022194000
  -0.0053421200   -0.0008336100    0.0042674100
   0.0049572300    0.0022382900    0.0063226000
   0.0016947800   -0.0045275300    0.0018601500
   0.0009447300   -0.0045268200    0.0022133100
   0.0008316300   -0.0057555400    0.0020619700
  -0.0009359500   -0.0055471100    0.0019327600
  -0.0011510700   -0.0031264600    0.0019195700
  -0.0003565200   -0.0044060400    0.0024095600
   0.0001045700   -0.0044996200    0.0023766000
   0.0002778200   -0.0042453600    0.0022231900
   0.0004326900   -0.0038633700    0.0021369600
   0.0006328800   -0.0027048300    0.0016077700
  -0.0027897600    0.0043496200    0.0011102500
   0.0017205300    0.0054159300    0.0020374800
   0.0005594400    0.0043882800    0.0021189500
   0.0003580100    0.0042071900    0.0021785000
   0.0004055500    0.0039604400    0.0021903400
   0.0003959000    0.0037243900    0.0022408000
  -0.0001510500    0.0046207900    0.0023371600
  -0.0001362000    0.0043638200    0.0022610900
   0.0000259700    0.0042446200    0.0022388700
   0.0001558400    0.0043203300    0.0022586300
   0.0001317500    0.0045143600    0.0023043800
  -0.0000177000    0.0047080700    0.0023519300
  -0.0001445900    0.0042215900    0.0023284200
  -0.0000421800    0.0043031800    0.0025233300
   0.0001306100    0.0042591600    0.0022914800
   0.0001443000    0.0042203200    0.0021639300
   0.0000302800    0.0041886900    0.0020330100
  -0.0001151700    0.0041334700    0.0020710400
  -0.0000728700    0.0043554500    0.0021499400
  -0.0000664600    0.0043438000    0.0022301000
   0.0000337200    0.0043116600    0.0022382100
   0.0000791700    0.0043010500    0.0022104900
   0.0000474200    0.0043241300    0.0021705800
  -0.0000232000    0.0043456800    0.0021157600
  -0.0003948100   -0.0046799900   -0.0003978800
  -0.0005524200   -0.0055171300   -0.0030655200
   0.0001562100   -0.0046248000   -0.0024140500
   0.0001936600   -0.0043764700   -0.0022793200
   0.0002450300   -0.0042862600   -0.0021841900
   0.0002982100   -0.0043059600   -0.0018670300
  -0.0000853700   -0.0040207400   -0.0021750000
  -0.0000801600   -0.0040235000   -0.0022131400
   0.0000067400   -0.0040402600   -0.0022240700
   0.0001470100   -0.0041096000   -0.0021791000
   0.0000982700   -0.0042634600   -0.0021216700
  -0.0000806900   -0.0040941300   -0.0021290900
  -0.0004908200   -0.0046619300   -0.0024931800
  -0.0002620400   -0.0045567700   -0.0020763300
   0.0002849400   -0.0045292600   -0.0022234700
   0.0002446900   -0.0043189900   -0.0022079300
   0.0002176900   -0.0042373900   -0.0022438000
   0.0000010400   -0.0042760500   -0.0023213700
  -0.0000833900   -0.0041069300   -0.0021606400
  -0.0001130800   -0.0040725200   -0.0021361200
  -0.0000245000   -0.0040130700   -0.0021253100
   0.0001294200   -0.0041702900   -0.0021708500
   0.0000864200   -0.0042958100   -0.0022037900
   0.0000046900   -0.0042410100   -0.0021993800
   0.0027885000    0.0027010800    0.0018240200
   0.0004875700    0.0037372600    0.0008546300
  -0.0010240000    0.0041009600    0.0014690600
  -0.0007153100    0.0036027600    0.0015013800
  -0.0009095500    0.0033381500    0.0015744500
  -0.0021915500    0.0016298400    0.0025584100
   0.0001529600    0.0031718300    0.0015276100
   0.0001318800    0.0026427100    0.0015895400
  -0.0001971700    0.0033803800    0.0015312000
  -0.0002152100    0.0035991300    0.0014948700
  -0.0000489000    0.0038046400    0.0014820000
   0.0002171400    0.0037123200    0.0015080900
   0.0000607700    0.0036068500    0.0015202500
   0.0000246800    0.0035948200    0.0015135000
  -0.0000223700    0.0035866100    0.0015096200
  -0.0000473600    0.0035909600    0.0015145300
  -0.0000292800    0.0036010800    0.0015190600
   0.0000138700    0.0036094700    0.0015217600
   0.0000336000    0.0035679000    0.0014978900
   0.0000144100    0.0035388300    0.0014841700
  -0.0000267900    0.0035582200    0.0014913200
  -0.0000393300    0.0035848500    0.0015171500
  -0.0000074800    0.0036059600    0.0015297700
   0.0000263500    0.0036020900    0.0015158100
   0.0000532300   -0.0035745500   -0.0014987100
   0.0000419700   -0.0035728500   -0.0014897900
  -0.0000156100   -0.0035694900   -0.0014845800
  -0.0000580900   -0.0035733100   -0.0014991300
  -0.0000417200   -0.0035873200   -0.0015225600
   0.0000173500   -0.0035811500   -0.0015187600
   0.0000525500   -0.0036825300   -0.0016446200
   0.0000860800   -0.0035688000   -0.0015164300
   0.0000057500   -0.0035613300   -0.0014962000
  -0.0000338500   -0.0035831300   -0.0015122200
  -0.0000483200   -0.0036062000   -0.0015361800
  -0.0000622800   -0.0036470000   -0.0015952300
   0.0024384200   -0.0043731100   -0.0024149900
   0.0013454200   -0.0039445700   -0.0016193000
  -0.0033808100   -0.0049472400   -0.0030773300
  -0.0010495900   -0.0035980800   -0.0015356900
  -0.0009347200   -0.0032377600   -0.0013939500
   0.0000167500   -0.0032844900   -0.0014798600
   0.0001897600   -0.0058617300   -0.0012550100
   0.0004060000   -0.0034276700   -0.0013781700
   0.0000504700   -0.0033076100   -0.0015892200
  -0.0001487600   -0.0035071800   -0.0015550600
  -0.0002179500   -0.0036601800   -0.0014897800
  -0.0003321400   -0.0039682500   -0.0013052400
   0.0005712300    0.0044511200   -0.0024162300
  -0.0006797100    0.0023799900    0.0006468600
  -0.0005064400    0.0036542900   -0.0014866600
  -0.0002894500    0.0036198600   -0.0014966100
  -0.0002447600    0.0036611300   -0.0015663000
  -0.0002672800    0.0038665300   -0.0018075700
   0.0000864800    0.0034716200   -0.0015268700
   0.0001736100    0.0034416900   -0.0015014500
   0.0000759500    0.0034880000   -0.0014911700
  -0.0000909600    0.0035373300   -0.0015155000
  -0.0001651500    0.0035274400   -0.0015416900
  -0.0000817500    0.0034854600   -0.0015506400
   0.0001513200    0.0036801100   -0.0015250100
   0.0001055200    0.0036321000   -0.0015742700
  -0.0000872700    0.0035774300   -0.0015574200
  -0.0001115200    0.0036020300   -0.0015281300
  -0.0000872800    0.0036321700   -0.0015062300
   0.0000336100    0.0036616600   -0.0014960700
   0.0000425600    0.0035382000   -0.0015054600
   0.0000681200    0.0035206900   -0.0015114600
   0.0000183200    0.0034960100   -0.0015162500
  -0.0000429400    0.0035573500   -0.0015148800
  -0.0000588600    0.0035900100   -0.0015114700
  -0.0000250600    0.0035805800   -0.0015028800
   0.0007503000   -0.0031975400    0.0014705300
  -0.0000554500   -0.0032552800    0.0016636400
  -0.0001168800   -0.0034883600    0.0015478100
  -0.0001684300   -0.0035439900    0.0015069000
  -0.0002416000   -0.0035504200    0.0014453000
  -0.0001796700   -0.0034736200    0.0013566600
   0.0000815800   -0.0037243300    0.0015191000
   0.0000191600   -0.0036582400    0.0015271500
  -0.0000713700   -0.0036395600    0.0015291900
  -0.0001506500   -0.0036463600    0.0015124500
   0.0000213800   -0.0036954300    0.0015105400
   0.0000820000   -0.0037565800    0.0015222200
   0.0007842900   -0.0032471900    0.0012253300
  -0.0002863300   -0.0032545500    0.0010355800
  -0.0001541400   -0.0035290600    0.0014555400
  -0.0001719000   -0.0035849900    0.0015401500
  -0.0001439600   -0.0036606100    0.0016584600
   0.0001000900   -0.0036838800    0.0017605000
   0.0000920500   -0.0036963200    0.0015676400
   0.0000545100   -0.0036425600    0.0015070900
  -0.0000797900   -0.0036294700    0.0014999300
  -0.0001070400   -0.0036167000    0.0015217700
  -0.0000246900   -0.0036359600    0.0015482400
   0.0000610600   -0.0036995900    0.0015930200
   0.0000461800   -0.0064387500   -0.0045622900
   0.0000205600   -0.0064472000   -0.0045716500
  -0.0000300300   -0.0064438700   -0.0045615500
  -0.0000428100   -0.0064549900   -0.0045626100
  -0.0000231600   -0.0064551100   -0.0045639200
   0.0000291500   -0.0064404700   -0.0045546700
   0.0000321500   -0.0064994100   -0.0045728100
   0.0000219300   -0.0065027100   -0.0045744000
  -0.0000135800   -0.0064912700   -0.0045673000
  -0.0000320200   -0.0064841900   -0.0045616800
  -0.0000219300   -0.0064860800   -0.0045614500
   0.0000135100   -0.0064894200   -0.0045661500
   0.0062612300    0.0102084400   -0.0216962100
  -0.0005887300   -0.0047409600   -0.0049807400
  -0.0005547800   -0.0062009500   -0.0045559100
  -0.0005708200   -0.0064194100   -0.0046050100
  -0.0006196700   -0.0061838700   -0.0043278900
  -0.0011551400   -0.0047386900   -0.0022139500
   0.0002255600   -0.0067337200   -0.0046914400
   0.0001463400   -0.0067471100   -0.0047472900
  -0.0001083100   -0.0066254000   -0.0046129600
  -0.0001852300   -0.0065113600   -0.0045618200
  -0.0001604900   -0.0065716400   -0.0046164300
   0.0000753400   -0.0066433900   -0.0046254200
   0.0042317900    0.0093774300    0.0045091300
   0.0015930500    0.0097907500   -0.0000668800
  -0.0011232800    0.0068378300    0.0043894000
  -0.0005915800    0.0065940900    0.0045295800
  -0.0008328500    0.0067662300    0.0048701900
  -0.0023057000    0.0085363900    0.0073549400
   0.0001710300    0.0060961300    0.0043116300
   0.0002568400    0.0062323700    0.0044718400
  -0.0000035400    0.0064097700    0.0045689600
  -0.0001544100    0.0064376700    0.0045715500
  -0.0001541400    0.0063781900    0.0045456800
  -0.0001079800    0.0061851500    0.0044121800
   0.0000396800    0.0064928100    0.0045427100
   0.0000341100    0.0065036000    0.0045796500
  -0.0000097200    0.0064860600    0.0045983200
  -0.0000368700    0.0064846200    0.0045631500
  -0.0000311800    0.0064931200    0.0045326400
   0.0000040500    0.0065012700    0.0045068400
   0.0000303800    0.0064253500    0.0045396600
   0.0000405400    0.0064228500    0.0045475700
   0.0000054100    0.0064452600    0.0045612200
  -0.0000283800    0.0064490000    0.0045620100
  -0.0000364000    0.0064243300    0.0045547600
  -0.0000108600    0.0064135100    0.0045435400
   0.0004657400   -0.0067312500    0.0047263800
   0.0002278100   -0.0064879000    0.0048005600
  -0.0004091200   -0.0070901400    0.0048156400
  -0.0002114100   -0.0065571100    0.0045782100
  -0.0001624700   -0.0063330700    0.0044678400
  -0.0000948900   -0.0061610400    0.0044206300
   0.0001161600   -0.0066563900    0.0041641600
   0.0001836300   -0.0065397900    0.0044670700
   0.0000049500   -0.0064311100    0.0045629500
  -0.0001013600   -0.0064288300    0.0045997700
  -0.0001242100   -0.0065063400    0.0045265400
  -0.0000925900   -0.0066248500    0.0043626100
   0.0000811000   -0.0064476900    0.0045119900
   0.0000587400   -0.0064676400    0.0044981400
  -0.0000101400   -0.0064913500    0.0045012100
  -0.0001503500   -0.0064236700    0.0044922800
  -0.0000607200   -0.0064420200    0.0045572300
   0.0000604600   -0.0064089000    0.0045315500
   0.0000887600   -0.0064662800    0.0046156900
   0.0001171500   -0.0064921100    0.0046000700
   0.0000127800   -0.0064676200    0.0045651500
  -0.0001009700   -0.0064518000    0.0045544000
  -0.0000940100   -0.0065034200    0.0046018200
  -0.0000096300   -0.0064953100    0.0046358400
   0.0000843500    0.0064951900   -0.0047983900
   0.0001272100    0.0066384400   -0.0046405800
  -0.0000251800    0.0065503200   -0.0045858100
  -0.0001302600    0.0064773900   -0.0045819900
  -0.0001571400    0.0064630100   -0.0046369700
   0.0001643900    0.0063506100   -0.0048848800
   0.0002060400    0.0063272100   -0.0044223900
  -0.0000331600    0.0063083600   -0.0043403300
  -0.0002547400    0.0062695600   -0.0044237700
  -0.0001929400    0.0064624500   -0.0045555700
  -0.0000743600    0.0065480200   -0.0045997100
   0.0003226000    0.0063096800   -0.0043660000
   0.0001428300    0.0065373600   -0.0044617900
   0.0000570400    0.0065514200   -0.0045873400
  -0.0001083700    0.0065968100   -0.0046199700
  -0.0001097600    0.0064528700   -0.0045428600
  -0.0000609200    0.0064203400   -0.0044558800
   0.0000920200    0.0065521300   -0.0043965800
   0.0000744500    0.0063891800   -0.0046755400
   0.0000374300    0.0063950900   -0.0047029100
  -0.0000612600    0.0063225800   -0.0048222500
  -0.0000793400    0.0064711300   -0.0045306600
  -0.0000242100    0.0064720000   -0.0044772000
   0.0000514400    0.0063889500   -0.0046400100
   0.0001294300    0.0051167200    0.0005323400
   0.0001985100    0.0057460900    0.0011989700
   0.0000061800    0.0055221900    0.0009616200
  -0.0000806800    0.0053730000    0.0008897200
  -0.0001365700    0.0053111800    0.0008422400
  -0.0001216200    0.0052474600    0.0007404100
   0.0001543200    0.0051778400    0.0008422400
   0.0000971900    0.0052107700    0.0008497300
  -0.0000688400    0.0052082400    0.0008894700
  -0.0002446800    0.0052071400    0.0008444100
  -0.0001188000    0.0053073100    0.0008333500
   0.0001635600    0.0051942500    0.0008428500
   0.0000939500    0.0053526000    0.0011531900
   0.0001348600    0.0054760300    0.0009002200
   0.0000052900    0.0054548900    0.0008477500
  -0.0000654300    0.0053479200    0.0008603400
  -0.0000816900    0.0052907700    0.0008937600
  -0.0000524800    0.0052472200    0.0009752100
   0.0001181000    0.0052478600    0.0008043300
   0.0000757300    0.0052119700    0.0007643400
  -0.0000381100    0.0052526000    0.0007050300
  -0.0001801200    0.0052399100    0.0008423300
  -0.0000821900    0.0052988500    0.0008923500
   0.0000728900    0.0052542600    0.0008881200
   0.0003766700   -0.0060362900   -0.0003441700
  -0.0001094900   -0.0057304100   -0.0007592600
  -0.0001463800   -0.0053681600   -0.0008203800
  -0.0001249100   -0.0052698500   -0.0008600600
  -0.0000423300   -0.0051417600   -0.0008659400
   0.0001113500   -0.0049470500   -0.0008129400
   0.0003278900   -0.0055004300   -0.0010226000
   0.0001795000   -0.0053788000   -0.0008864100
  -0.0000443300   -0.0053211900   -0.0008410500
  -0.0001635100   -0.0053462700   -0.0008851300
  -0.0002208500   -0.0054622400   -0.0009570600
  -0.0000901500   -0.0055267900   -0.0010584200
   0.0000755300   -0.0052986200   -0.0008871900
   0.0000252100   -0.0053724000   -0.0009532700
  -0.0000674200   -0.0053348400   -0.0008973800
  -0.0000896200   -0.0052828700   -0.0008559400
  -0.0000113700   -0.0052385000   -0.0008161800
   0.0000629300   -0.0052348800   -0.0008173900
   0.0000751100   -0.0053287100   -0.0008533800
   0.0000615600   -0.0053522900   -0.0008767100
  -0.0000316200   -0.0053358000   -0.0008851000
  -0.0000912700   -0.0053172800   -0.0008603800
  -0.0000445100   -0.0053176600   -0.0008408500
   0.0000313900   -0.0053106000   -0.0008392200
   0.0000472200    0.0053448000   -0.0008636800
   0.0000244800    0.0053540200   -0.0008222500
  -0.0000320400    0.0053341300   -0.0008493400
  -0.0000434700    0.0053264800   -0.0008701000
  -0.0000256300    0.0053275200   -0.0008891100
   0.0000302200    0.0053292400   -0.0008997300
   0.0000281100    0.0052718700   -0.0008733700
   0.0000138100    0.0053077400   -0.0008660000
  -0.0000099400    0.0053135700   -0.0008603000
  -0.0000234000    0.0052977800   -0.0008621600
  -0.0000156500    0.0052728700   -0.0008672500
   0.0000069400    0.0052511600   -0.0008768500
   0.0021183100    0.0058582600   -0.0015699300
  -0.0003362800    0.0070134500   -0.0033173500
  -0.0006430000    0.0054429100   -0.0009497700
  -0.0008142800    0.0053633100   -0.0008596700
  -0.0016499200    0.0058969600   -0.0005135600
  -0.0003608700    0.0060442900   -0.0012181300
   0.0003846100    0.0046509700   -0.0005166000
   0.0000820700    0.0054264200   -0.0009912400
  -0.0000826400    0.0054252300   -0.0009527800
  -0.0001439600    0.0052981000   -0.0008596400
  -0.0001087900    0.0051127000   -0.0007696800
  -0.0001330100    0.0044570700   -0.0003518700
   0.0086294600    0.0114759300    0.0105091300
   0.0038599200    0.0016714700    0.0002921800
  -0.0019912100   -0.0032180700    0.0004133700
  -0.0007561100   -0.0051673100    0.0007687600
  -0.0005909000   -0.0053722000    0.0009086100
  -0.0014760100   -0.0048580500    0.0015786200
   0.0001494600   -0.0054751300    0.0009300400
   0.0001937400   -0.0057697700    0.0010358700
   0.0000061600   -0.0056986500    0.0010450200
  -0.0001278700   -0.0053960400    0.0008964700
  -0.0001783100   -0.0052653800    0.0007988100
  -0.0000276300   -0.0052761200    0.0007987300
   0.0000390500   -0.0052676600    0.0008430900
   0.0000340300   -0.0052938300    0.0008524800
  -0.0000060000   -0.0053040800    0.0008516000
  -0.0000382600   -0.0053027500    0.0008574700
  -0.0000323100   -0.0052952000    0.0008598400
   0.0000035000   -0.0052778100    0.0008544800
   0.0000181800   -0.0053333100    0.0008649600
   0.0000225000   -0.0053512100    0.0008669200
   0.0000072200   -0.0053564200    0.0008621900
  -0.0000229000   -0.0053377000    0.0008658000
  -0.0000240500   -0.0053163500    0.0008665500
  -0.0000006800   -0.0053163900    0.0008665400

1    
 -0.0071224593808210  -0.0070192999913492  -0.0000000000000000
   0.0388352800    0.0394892200   -0.0110869100
  -0.0108037200    0.0082049000    0.0070889300
  -0.0015346600    0.0003567600    0.0039843100
  -0.0010812300    0.0002242800    0.0038683100
  -0.0020135000    0.0008439000    0.0041203700
  -0.0143163900    0.0118285600    0.0099998800
   0.0003894100   -0.0000696100    0.0037947700
   0.0001784400   -0.0000078000    0.0038402400
  -0.0001767500    0.0001916600    0.0039528300
  -0.0002996600    0.0003031200    0.0039860600
  -0.0002058900    0.0002215100    0.0039019000
   0.0001180300    0.0000531300    0.0038453400
   0.0000926700    0.0003340600    0.0039505200
   0.0000297100    0.0003361900    0.0039488000
  -0.0000566300    0.0003218200    0.0039492300
  -0.0000769300    0.0003076800    0.0039574500
  -0.0000397900    0.0003043200    0.0039578100
   0.0000496400    0.0003158100    0.0039563800
   0.0000488200    0.0002491900    0.0039515900
   0.0000381900    0.0002489200    0.0039496800
  -0.0000252100    0.0002661700    0.0039569500
  -0.0000599000    0.0002751700    0.0039642400
  -0.0000284300    0.0002698200    0.0039634300
   0.0000278300    0.0002595000    0.0039574900
   0.0001326400   -0.0002366700   -0.0040017000
   0.0001282100   -0.0002414200   -0.0039445800
  -0.0000539500   -0.0002696900   -0.0039003800
  -0.0000982300   -0.0002694200   -0.0039622700
  -0.0000919300   -0.0002627500   -0.0040167100
  -0.0000183700   -0.0002328700   -0.0040652500
   0.0000455300   -0.0003637500   -0.0039808900
   0.0000638400   -0.0003447700   -0.0039664600
   0.0000122200   -0.0003227300   -0.0039520500
  -0.0000447300   -0.0003173500   -0.0039516100
  -0.0000551900   -0.0003278500   -0.0039533400
  -0.0000220600   -0.0003578300   -0.0039685700
  -0.0003237300    0.0036803900   -0.0018894100
   0.0047557500    0.0089310000   -0.0146213600
  -0.0012671200    0.0003021900   -0.0043512400
  -0.0010470400   -0.0003046900   -0.0040729300
  -0.0013484900   -0.0006165300   -0.0039288700
  -0.0011756900    0.0004011100   -0.0023472400
   0.0002644700   -0.0008377600   -0.0041161700
   0.0005074800   -0.0005885600   -0.0041372700
   0.0000275800   -0.0003360700   -0.0039685700
  -0.0002562700   -0.0003097200   -0.0039494600
  -0.0002863500   -0.0003407700   -0.0039449100
  -0.0002603400   -0.0006337300   -0.0041107200
   0.0012280800   -0.0000715100   -0.0037943700
  -0.0001391300   -0.0004468400   -0.0034873100
  -0.0005032300   -0.0001305600   -0.0038393100
  -0.0003712800    0.0002422900   -0.0039791100
  -0.0002500400    0.0003687000   -0.0040359400
   0.0000770400    0.0005353500   -0.0040810500
   0.0003628200   -0.0009692900   -0.0045758200
   0.0007299300    0.0004487900   -0.0041015500
   0.0001083200    0.0005027900   -0.0039663600
  -0.0002499600    0.0003678700   -0.0038806400
  -0.0003719100    0.0002425300   -0.0040338100
  -0.0005369200   -0.0000978300   -0.0042868400
   0.0001260800    0.0003175000   -0.0040263400
   0.0001037800    0.0002802500   -0.0040490600
  -0.0000172600    0.0002977900   -0.0040859500
  -0.0001732500    0.0003080400   -0.0040257800
  -0.0000986600    0.0002825100   -0.0039361500
   0.0000637200    0.0003136800   -0.0039602900
   0.0000967300    0.0002875500   -0.0038982100
   0.0001333800    0.0003106100   -0.0039466600
   0.0000305300    0.0003475800   -0.0039962600
  -0.0001479200    0.0003338400   -0.0039895300
  -0.0001236400    0.0002569900   -0.0039205600
   0.0000154200    0.0002641400   -0.0038941600
   0.0004347800   -0.0002273400    0.0036483300
   0.0001452900   -0.0001217600    0.0039187400
  -0.0000914900   -0.0002466400    0.0039597700
  -0.0002067900   -0.0003117300    0.0039491500
  -0.0002534600   -0.0003377000    0.0038690200
   0.0000064100   -0.0003735700    0.0035526000
   0.0001970900   -0.0004426300    0.0041424900
   0.0001614400   -0.0004918600    0.0041969600
  -0.0003900600   -0.0005570200    0.0041729400
  -0.0003073900   -0.0002474700    0.0039476800
  -0.0000723500   -0.0001010000    0.0038500600
   0.0003520300   -0.0003260100    0.0040713900
   0.0004356100   -0.0002258900    0.0041977900
   0.0001967500   -0.0001757000    0.0039395000
  -0.0001283400   -0.0002087700    0.0039309900
  -0.0002069900   -0.0003116500    0.0039866700
  -0.0002166500   -0.0003759600    0.0041173300
  -0.0000456700   -0.0003178100    0.0043253400
   0.0001972100   -0.0004426800    0.0037270900
   0.0001771700   -0.0005082200    0.0036419800
  -0.0004539100   -0.0004925900    0.0035115400
  -0.0003080700   -0.0002480000    0.0040029900
  -0.0000096900   -0.0001653500    0.0040828100
   0.0003374300   -0.0003100800    0.0038090900
  -0.0005918700   -0.0087481000    0.0077047300
   0.0039297900    0.0054372800   -0.0043653800
  -0.0002299300    0.0057328400   -0.0026050800
  -0.0007780400    0.0043813600   -0.0023803300
  -0.0008498800    0.0041984800   -0.0020797000
  -0.0018085600    0.0040194200   -0.0011971800
   0.0004550000    0.0038122800   -0.0020535200
   0.0003423400    0.0034819900   -0.0021431500
  -0.0003361200    0.0033376100   -0.0018621700
  -0.0003501100    0.0040940900   -0.0021515700
  -0.0002488100    0.0043903700   -0.0023087100
   0.0001522600    0.0043352600   -0.0022978600
   0.0000472900    0.0043308800   -0.0022787100
   0.0000553400    0.0043336300   -0.0022022600
   0.0000042200    0.0043171800   -0.0021997500
  -0.0000437900    0.0042967000   -0.0022107000
  -0.0000509000    0.0042846800   -0.0022282500
  -0.0000110000    0.0043046300   -0.0022606700
   0.0000466000    0.0042411200   -0.0021984600
   0.0000384500    0.0042188500   -0.0021911000
  -0.0000120200    0.0042264200   -0.0021873100
  -0.0000495700    0.0042486400   -0.0021907500
  -0.0000361500    0.0042638800   -0.0022057400
   0.0000129700    0.0042621300   -0.0022026600
   0.0000552100   -0.0042415400    0.0022052800
   0.0000183500   -0.0042872000    0.0022117500
  -0.0000440300   -0.0042656600    0.0022095800
  -0.0000620500   -0.0042477900    0.0022023600
  -0.0000138700   -0.0042207900    0.0021973800
   0.0000449300   -0.0042012200    0.0021995100
   0.0001225500   -0.0043312500    0.0021972300
   0.0000508500   -0.0042955300    0.0022029100
  -0.0000236800   -0.0042828000    0.0022026700
  -0.0000598800   -0.0043002600    0.0022056100
  -0.0000759300   -0.0043371800    0.0022119400
  -0.0000141700   -0.0043484000    0.0021954000
   0.0053012500   -0.0076883800    0.0001650800
  -0.0049501000   -0.0107708400   -0.0019074900
  -0.0016910600   -0.0040230300    0.0025537900
  -0.0009439500   -0.0040217000    0.0022018500
  -0.0008278500   -0.0027841700    0.0023569000
   0.0009611600   -0.0030409400    0.0024655900
   0.0011590700   -0.0054252000    0.0024958700
   0.0003546400   -0.0041372600    0.0020008400
  -0.0001053700   -0.0040496400    0.0020387800