phonopy:
  version: "2.21.0"
  frequency_unit_conversion_factor: 15.633302
  symmetry_tolerance: 1.00000e-05
  configuration:
    band: "auto"
    dim: "6 2 2"

physical_unit:
  atomic_mass: "AMU"
  length: "angstrom"
  force_constants: "eV/angstrom^2"

space_group:
  type: "Pnma"
  number: 62
  Hall_symbol: "-P 2ac 2n"

primitive_matrix:
- [  0.000000000000000,  1.000000000000000,  0.000000000000000 ]
- [  0.000000000000000,  0.000000000000000,  1.000000000000000 ]
- [  1.000000000000000, -0.000000000000000, -0.000000000000000 ]

supercell_matrix:
- [   6,   0,   0 ]
- [   0,   2,   0 ]
- [   0,   0,   2 ]

primitive_cell:
  lattice:
  - [     0.000000000000000,     0.000000000000000,    11.800118449999999 ] # a
  - [     3.844732910000000,     0.000000000000000,     0.000000000000000 ] # b
  - [    -0.000000000000001,    11.367141139999999,     0.000000000000001 ] # c
  points:
  - symbol: Sb # 1
    coordinates: [  0.857350400000000,  0.750000000000000,  0.465583620000000 ]
    mass: 121.760000
  - symbol: Sb # 2
    coordinates: [  0.142649600000000,  0.250000000000000,  0.534416380000000 ]
    mass: 121.760000
  - symbol: Sb # 3
    coordinates: [  0.642649600000000,  0.250000000000000,  0.965583620000000 ]
    mass: 121.760000
  - symbol: Sb # 4
    coordinates: [  0.357350400000000,  0.750000000000000,  0.034416380000000 ]
    mass: 121.760000
  - symbol: Sb # 5
    coordinates: [  0.966943600000000,  0.250000000000000,  0.173082670000000 ]
    mass: 121.760000
  - symbol: Sb # 6
    coordinates: [  0.033056400000000,  0.750000000000000,  0.826917330000000 ]
    mass: 121.760000
  - symbol: Sb # 7
    coordinates: [  0.533056400000000,  0.750000000000000,  0.673082670000000 ]
    mass: 121.760000
  - symbol: Sb # 8
    coordinates: [  0.466943600000000,  0.250000000000000,  0.326917330000000 ]
    mass: 121.760000
  - symbol: S  # 9
    coordinates: [  0.875927160000000,  0.750000000000000,  0.061469490000000 ]
    mass: 32.065000
  - symbol: S  # 10
    coordinates: [  0.124072840000000,  0.250000000000000,  0.938530510000000 ]
    mass: 32.065000
  - symbol: S  # 11
    coordinates: [  0.624072840000000,  0.250000000000000,  0.561469490000000 ]
    mass: 32.065000
  - symbol: S  # 12
    coordinates: [  0.375927160000000,  0.750000000000000,  0.438530510000000 ]
    mass: 32.065000
  - symbol: S  # 13
    coordinates: [  0.048541450000000,  0.750000000000000,  0.379232040000000 ]
    mass: 32.065000
  - symbol: S  # 14
    coordinates: [  0.951458550000000,  0.250000000000000,  0.620767960000000 ]
    mass: 32.065000
  - symbol: S  # 15
    coordinates: [  0.451458550000000,  0.250000000000000,  0.879232040000000 ]
    mass: 32.065000
  - symbol: S  # 16
    coordinates: [  0.548541450000000,  0.750000000000000,  0.120767960000000 ]
    mass: 32.065000
  - symbol: S  # 17
    coordinates: [  0.300249270000000,  0.250000000000000,  0.188547610000000 ]
    mass: 32.065000
  - symbol: S  # 18
    coordinates: [  0.699750730000000,  0.750000000000000,  0.811452390000000 ]
    mass: 32.065000
  - symbol: S  # 19
    coordinates: [  0.199750730000000,  0.750000000000000,  0.688547610000000 ]
    mass: 32.065000
  - symbol: S  # 20
    coordinates: [  0.800249270000000,  0.250000000000000,  0.311452390000000 ]
    mass: 32.065000
  reciprocal_lattice: # without 2pi
  - [    -0.000000000000000,    -0.000000000000000,     0.084744912030947 ] # a*
  - [     0.260096090784106,     0.000000000000000,     0.000000000000000 ] # b*
  - [     0.000000000000000,     0.087972867380091,     0.000000000000000 ] # c*

unit_cell:
  lattice:
  - [     3.844732910000000,     0.000000000000000,     0.000000000000000 ] # a
  - [    -0.000000000000001,    11.367141139999999,     0.000000000000001 ] # b
  - [     0.000000000000000,     0.000000000000000,    11.800118449999999 ] # c
  points:
  - symbol: Sb # 1
    coordinates: [  0.750000000000000,  0.465583620000000,  0.857350400000000 ]
    mass: 121.760000
    reduced_to: 1
  - symbol: Sb # 2
    coordinates: [  0.250000000000000,  0.534416380000000,  0.142649600000000 ]
    mass: 121.760000
    reduced_to: 2
  - symbol: Sb # 3
    coordinates: [  0.250000000000000,  0.965583620000000,  0.642649600000000 ]
    mass: 121.760000
    reduced_to: 3
  - symbol: Sb # 4
    coordinates: [  0.750000000000000,  0.034416380000000,  0.357350400000000 ]
    mass: 121.760000
    reduced_to: 4
  - symbol: Sb # 5
    coordinates: [  0.250000000000000,  0.173082670000000,  0.966943600000000 ]
    mass: 121.760000
    reduced_to: 5
  - symbol: Sb # 6
    coordinates: [  0.750000000000000,  0.826917330000000,  0.033056400000000 ]
    mass: 121.760000
    reduced_to: 6
  - symbol: Sb # 7
    coordinates: [  0.750000000000000,  0.673082670000000,  0.533056400000000 ]
    mass: 121.760000
    reduced_to: 7
  - symbol: Sb # 8
    coordinates: [  0.250000000000000,  0.326917330000000,  0.466943600000000 ]
    mass: 121.760000
    reduced_to: 8
  - symbol: S  # 9
    coordinates: [  0.750000000000000,  0.061469490000000,  0.875927160000000 ]
    mass: 32.065000
    reduced_to: 9
  - symbol: S  # 10
    coordinates: [  0.250000000000000,  0.938530510000000,  0.124072840000000 ]
    mass: 32.065000
    reduced_to: 10
  - symbol: S  # 11
    coordinates: [  0.250000000000000,  0.561469490000000,  0.624072840000000 ]
    mass: 32.065000
    reduced_to: 11
  - symbol: S  # 12
    coordinates: [  0.750000000000000,  0.438530510000000,  0.375927160000000 ]
    mass: 32.065000
    reduced_to: 12
  - symbol: S  # 13
    coordinates: [  0.750000000000000,  0.379232040000000,  0.048541450000000 ]
    mass: 32.065000
    reduced_to: 13
  - symbol: S  # 14
    coordinates: [  0.250000000000000,  0.620767960000000,  0.951458550000000 ]
    mass: 32.065000
    reduced_to: 14
  - symbol: S  # 15
    coordinates: [  0.250000000000000,  0.879232040000000,  0.451458550000000 ]
    mass: 32.065000
    reduced_to: 15
  - symbol: S  # 16
    coordinates: [  0.750000000000000,  0.120767960000000,  0.548541450000000 ]
    mass: 32.065000
    reduced_to: 16
  - symbol: S  # 17
    coordinates: [  0.250000000000000,  0.188547610000000,  0.300249270000000 ]
    mass: 32.065000
    reduced_to: 17
  - symbol: S  # 18
    coordinates: [  0.750000000000000,  0.811452390000000,  0.699750730000000 ]
    mass: 32.065000
    reduced_to: 18
  - symbol: S  # 19
    coordinates: [  0.750000000000000,  0.688547610000000,  0.199750730000000 ]
    mass: 32.065000
    reduced_to: 19
  - symbol: S  # 20
    coordinates: [  0.250000000000000,  0.311452390000000,  0.800249270000000 ]
    mass: 32.065000
    reduced_to: 20

supercell:
  lattice:
  - [    23.068397460000000,     0.000000000000000,     0.000000000000001 ] # a
  - [    -0.000000000000001,    22.734282279999999,     0.000000000000001 ] # b
  - [     0.000000000000000,     0.000000000000000,    23.600236899999999 ] # c
  points:
  - symbol: Sb # 1
    coordinates: [  0.125000000000000,  0.232791810000000,  0.428675200000000 ]
    mass: 121.760000
    reduced_to: 1
  - symbol: Sb # 2
    coordinates: [  0.291666666666667,  0.232791810000000,  0.428675200000000 ]
    mass: 121.760000
    reduced_to: 1
  - symbol: Sb # 3
    coordinates: [  0.458333333333333,  0.232791810000000,  0.428675200000000 ]
    mass: 121.760000
    reduced_to: 1
  - symbol: Sb # 4
    coordinates: [  0.625000000000000,  0.232791810000000,  0.428675200000000 ]
    mass: 121.760000
    reduced_to: 1
  - symbol: Sb # 5
    coordinates: [  0.791666666666667,  0.232791810000000,  0.428675200000000 ]
    mass: 121.760000
    reduced_to: 1
  - symbol: Sb # 6
    coordinates: [  0.958333333333333,  0.232791810000000,  0.428675200000000 ]
    mass: 121.760000
    reduced_to: 1
  - symbol: Sb # 7
    coordinates: [  0.125000000000000,  0.732791810000000,  0.428675200000000 ]
    mass: 121.760000
    reduced_to: 1
  - symbol: Sb # 8
    coordinates: [  0.291666666666667,  0.732791810000000,  0.428675200000000 ]
    mass: 121.760000
    reduced_to: 1
  - symbol: Sb # 9
    coordinates: [  0.458333333333333,  0.732791810000000,  0.428675200000000 ]
    mass: 121.760000
    reduced_to: 1
  - symbol: Sb # 10
    coordinates: [  0.625000000000000,  0.732791810000000,  0.428675200000000 ]
    mass: 121.760000
    reduced_to: 1
  - symbol: Sb # 11
    coordinates: [  0.791666666666667,  0.732791810000000,  0.428675200000000 ]
    mass: 121.760000
    reduced_to: 1
  - symbol: Sb # 12
    coordinates: [  0.958333333333333,  0.732791810000000,  0.428675200000000 ]
    mass: 121.760000
    reduced_to: 1
  - symbol: Sb # 13
    coordinates: [  0.125000000000000,  0.232791810000000,  0.928675200000000 ]
    mass: 121.760000
    reduced_to: 1
  - symbol: Sb # 14
    coordinates: [  0.291666666666667,  0.232791810000000,  0.928675200000000 ]
    mass: 121.760000
    reduced_to: 1
  - symbol: Sb # 15
    coordinates: [  0.458333333333333,  0.232791810000000,  0.928675200000000 ]
    mass: 121.760000
    reduced_to: 1
  - symbol: Sb # 16
    coordinates: [  0.625000000000000,  0.232791810000000,  0.928675200000000 ]
    mass: 121.760000
    reduced_to: 1
  - symbol: Sb # 17
    coordinates: [  0.791666666666667,  0.232791810000000,  0.928675200000000 ]
    mass: 121.760000
    reduced_to: 1
  - symbol: Sb # 18
    coordinates: [  0.958333333333333,  0.232791810000000,  0.928675200000000 ]
    mass: 121.760000
    reduced_to: 1
  - symbol: Sb # 19
    coordinates: [  0.125000000000000,  0.732791810000000,  0.928675200000000 ]
    mass: 121.760000
    reduced_to: 1
  - symbol: Sb # 20
    coordinates: [  0.291666666666667,  0.732791810000000,  0.928675200000000 ]
    mass: 121.760000
    reduced_to: 1
  - symbol: Sb # 21
    coordinates: [  0.458333333333333,  0.732791810000000,  0.928675200000000 ]
    mass: 121.760000
    reduced_to: 1
  - symbol: Sb # 22
    coordinates: [  0.625000000000000,  0.732791810000000,  0.928675200000000 ]
    mass: 121.760000
    reduced_to: 1
  - symbol: Sb # 23
    coordinates: [  0.791666666666667,  0.732791810000000,  0.928675200000000 ]
    mass: 121.760000
    reduced_to: 1
  - symbol: Sb # 24
    coordinates: [  0.958333333333333,  0.732791810000000,  0.928675200000000 ]
    mass: 121.760000
    reduced_to: 1
  - symbol: Sb # 25
    coordinates: [  0.041666666666667,  0.267208190000000,  0.071324800000000 ]
    mass: 121.760000
    reduced_to: 25
  - symbol: Sb # 26
    coordinates: [  0.208333333333333,  0.267208190000000,  0.071324800000000 ]
    mass: 121.760000
    reduced_to: 25
  - symbol: Sb # 27
    coordinates: [  0.375000000000000,  0.267208190000000,  0.071324800000000 ]
    mass: 121.760000
    reduced_to: 25
  - symbol: Sb # 28
    coordinates: [  0.541666666666667,  0.267208190000000,  0.071324800000000 ]
    mass: 121.760000
    reduced_to: 25
  - symbol: Sb # 29
    coordinates: [  0.708333333333333,  0.267208190000000,  0.071324800000000 ]
    mass: 121.760000
    reduced_to: 25
  - symbol: Sb # 30
    coordinates: [  0.875000000000000,  0.267208190000000,  0.071324800000000 ]
    mass: 121.760000
    reduced_to: 25
  - symbol: Sb # 31
    coordinates: [  0.041666666666667,  0.767208190000000,  0.071324800000000 ]
    mass: 121.760000
    reduced_to: 25
  - symbol: Sb # 32
    coordinates: [  0.208333333333333,  0.767208190000000,  0.071324800000000 ]
    mass: 121.760000
    reduced_to: 25
  - symbol: Sb # 33
    coordinates: [  0.375000000000000,  0.767208190000000,  0.071324800000000 ]
    mass: 121.760000
    reduced_to: 25
  - symbol: Sb # 34
    coordinates: [  0.541666666666667,  0.767208190000000,  0.071324800000000 ]
    mass: 121.760000
    reduced_to: 25
  - symbol: Sb # 35
    coordinates: [  0.708333333333333,  0.767208190000000,  0.071324800000000 ]
    mass: 121.760000
    reduced_to: 25
  - symbol: Sb # 36
    coordinates: [  0.875000000000000,  0.767208190000000,  0.071324800000000 ]
    mass: 121.760000
    reduced_to: 25
  - symbol: Sb # 37
    coordinates: [  0.041666666666667,  0.267208190000000,  0.571324800000000 ]
    mass: 121.760000
    reduced_to: 25
  - symbol: Sb # 38
    coordinates: [  0.208333333333333,  0.267208190000000,  0.571324800000000 ]
    mass: 121.760000
    reduced_to: 25
  - symbol: Sb # 39
    coordinates: [  0.375000000000000,  0.267208190000000,  0.571324800000000 ]
    mass: 121.760000
    reduced_to: 25
  - symbol: Sb # 40
    coordinates: [  0.541666666666667,  0.267208190000000,  0.571324800000000 ]
    mass: 121.760000
    reduced_to: 25
  - symbol: Sb # 41
    coordinates: [  0.708333333333333,  0.267208190000000,  0.571324800000000 ]
    mass: 121.760000
    reduced_to: 25
  - symbol: Sb # 42
    coordinates: [  0.875000000000000,  0.267208190000000,  0.571324800000000 ]
    mass: 121.760000
    reduced_to: 25
  - symbol: Sb # 43
    coordinates: [  0.041666666666667,  0.767208190000000,  0.571324800000000 ]
    mass: 121.760000
    reduced_to: 25
  - symbol: Sb # 44
    coordinates: [  0.208333333333333,  0.767208190000000,  0.571324800000000 ]
    mass: 121.760000
    reduced_to: 25
  - symbol: Sb # 45
    coordinates: [  0.375000000000000,  0.767208190000000,  0.571324800000000 ]
    mass: 121.760000
    reduced_to: 25
  - symbol: Sb # 46
    coordinates: [  0.541666666666667,  0.767208190000000,  0.571324800000000 ]
    mass: 121.760000
    reduced_to: 25
  - symbol: Sb # 47
    coordinates: [  0.708333333333333,  0.767208190000000,  0.571324800000000 ]
    mass: 121.760000
    reduced_to: 25
  - symbol: Sb # 48
    coordinates: [  0.875000000000000,  0.767208190000000,  0.571324800000000 ]
    mass: 121.760000
    reduced_to: 25
  - symbol: Sb # 49
    coordinates: [  0.041666666666667,  0.482791810000000,  0.321324800000000 ]
    mass: 121.760000
    reduced_to: 49
  - symbol: Sb # 50
    coordinates: [  0.208333333333333,  0.482791810000000,  0.321324800000000 ]
    mass: 121.760000
    reduced_to: 49
  - symbol: Sb # 51
    coordinates: [  0.375000000000000,  0.482791810000000,  0.321324800000000 ]
    mass: 121.760000
    reduced_to: 49
  - symbol: Sb # 52
    coordinates: [  0.541666666666667,  0.482791810000000,  0.321324800000000 ]
    mass: 121.760000
    reduced_to: 49
  - symbol: Sb # 53
    coordinates: [  0.708333333333333,  0.482791810000000,  0.321324800000000 ]
    mass: 121.760000
    reduced_to: 49
  - symbol: Sb # 54
    coordinates: [  0.875000000000000,  0.482791810000000,  0.321324800000000 ]
    mass: 121.760000
    reduced_to: 49
  - symbol: Sb # 55
    coordinates: [  0.041666666666667,  0.982791810000000,  0.321324800000000 ]
    mass: 121.760000
    reduced_to: 49
  - symbol: Sb # 56
    coordinates: [  0.208333333333333,  0.982791810000000,  0.321324800000000 ]
    mass: 121.760000
    reduced_to: 49
  - symbol: Sb # 57
    coordinates: [  0.375000000000000,  0.982791810000000,  0.321324800000000 ]
    mass: 121.760000
    reduced_to: 49
  - symbol: Sb # 58
    coordinates: [  0.541666666666667,  0.982791810000000,  0.321324800000000 ]
    mass: 121.760000
    reduced_to: 49
  - symbol: Sb # 59
    coordinates: [  0.708333333333333,  0.982791810000000,  0.321324800000000 ]
    mass: 121.760000
    reduced_to: 49
  - symbol: Sb # 60
    coordinates: [  0.875000000000000,  0.982791810000000,  0.321324800000000 ]
    mass: 121.760000
    reduced_to: 49
  - symbol: Sb # 61
    coordinates: [  0.041666666666667,  0.482791810000000,  0.821324800000000 ]
    mass: 121.760000
    reduced_to: 49
  - symbol: Sb # 62
    coordinates: [  0.208333333333333,  0.482791810000000,  0.821324800000000 ]
    mass: 121.760000
    reduced_to: 49
  - symbol: Sb # 63
    coordinates: [  0.375000000000000,  0.482791810000000,  0.821324800000000 ]
    mass: 121.760000
    reduced_to: 49
  - symbol: Sb # 64
    coordinates: [  0.541666666666667,  0.482791810000000,  0.821324800000000 ]
    mass: 121.760000
    reduced_to: 49
  - symbol: Sb # 65
    coordinates: [  0.708333333333333,  0.482791810000000,  0.821324800000000 ]
    mass: 121.760000
    reduced_to: 49
  - symbol: Sb # 66
    coordinates: [  0.875000000000000,  0.482791810000000,  0.821324800000000 ]
    mass: 121.760000
    reduced_to: 49
  - symbol: Sb # 67
    coordinates: [  0.041666666666667,  0.982791810000000,  0.821324800000000 ]
    mass: 121.760000
    reduced_to: 49
  - symbol: Sb # 68
    coordinates: [  0.208333333333333,  0.982791810000000,  0.821324800000000 ]
    mass: 121.760000
    reduced_to: 49
  - symbol: Sb # 69
    coordinates: [  0.375000000000000,  0.982791810000000,  0.821324800000000 ]
    mass: 121.760000
    reduced_to: 49
  - symbol: Sb # 70
    coordinates: [  0.541666666666667,  0.982791810000000,  0.821324800000000 ]
    mass: 121.760000
    reduced_to: 49
  - symbol: Sb # 71
    coordinates: [  0.708333333333333,  0.982791810000000,  0.821324800000000 ]
    mass: 121.760000
    reduced_to: 49
  - symbol: Sb # 72
    coordinates: [  0.875000000000000,  0.982791810000000,  0.821324800000000 ]
    mass: 121.760000
    reduced_to: 49
  - symbol: Sb # 73
    coordinates: [  0.125000000000000,  0.017208190000000,  0.178675200000000 ]
    mass: 121.760000
    reduced_to: 73
  - symbol: Sb # 74
    coordinates: [  0.291666666666667,  0.017208190000000,  0.178675200000000 ]
    mass: 121.760000
    reduced_to: 73
  - symbol: Sb # 75
    coordinates: [  0.458333333333333,  0.017208190000000,  0.178675200000000 ]
    mass: 121.760000
    reduced_to: 73
  - symbol: Sb # 76
    coordinates: [  0.625000000000000,  0.017208190000000,  0.178675200000000 ]
    mass: 121.760000
    reduced_to: 73
  - symbol: Sb # 77
    coordinates: [  0.791666666666667,  0.017208190000000,  0.178675200000000 ]
    mass: 121.760000
    reduced_to: 73
  - symbol: Sb # 78
    coordinates: [  0.958333333333333,  0.017208190000000,  0.178675200000000 ]
    mass: 121.760000
    reduced_to: 73
  - symbol: Sb # 79
    coordinates: [  0.125000000000000,  0.517208190000000,  0.178675200000000 ]
    mass: 121.760000
    reduced_to: 73
  - symbol: Sb # 80
    coordinates: [  0.291666666666667,  0.517208190000000,  0.178675200000000 ]
    mass: 121.760000
    reduced_to: 73
  - symbol: Sb # 81
    coordinates: [  0.458333333333333,  0.517208190000000,  0.178675200000000 ]
    mass: 121.760000
    reduced_to: 73
  - symbol: Sb # 82
    coordinates: [  0.625000000000000,  0.517208190000000,  0.178675200000000 ]
    mass: 121.760000
    reduced_to: 73
  - symbol: Sb # 83
    coordinates: [  0.791666666666667,  0.517208190000000,  0.178675200000000 ]
    mass: 121.760000
    reduced_to: 73
  - symbol: Sb # 84
    coordinates: [  0.958333333333333,  0.517208190000000,  0.178675200000000 ]
    mass: 121.760000
    reduced_to: 73
  - symbol: Sb # 85
    coordinates: [  0.125000000000000,  0.017208190000000,  0.678675200000000 ]
    mass: 121.760000
    reduced_to: 73
  - symbol: Sb # 86
    coordinates: [  0.291666666666667,  0.017208190000000,  0.678675200000000 ]
    mass: 121.760000
    reduced_to: 73
  - symbol: Sb # 87
    coordinates: [  0.458333333333333,  0.017208190000000,  0.678675200000000 ]
    mass: 121.760000
    reduced_to: 73
  - symbol: Sb # 88
    coordinates: [  0.625000000000000,  0.017208190000000,  0.678675200000000 ]
    mass: 121.760000
    reduced_to: 73
  - symbol: Sb # 89
    coordinates: [  0.791666666666667,  0.017208190000000,  0.678675200000000 ]
    mass: 121.760000
    reduced_to: 73
  - symbol: Sb # 90
    coordinates: [  0.958333333333333,  0.017208190000000,  0.678675200000000 ]
    mass: 121.760000
    reduced_to: 73
  - symbol: Sb # 91
    coordinates: [  0.125000000000000,  0.517208190000000,  0.678675200000000 ]
    mass: 121.760000
    reduced_to: 73
  - symbol: Sb # 92
    coordinates: [  0.291666666666667,  0.517208190000000,  0.678675200000000 ]
    mass: 121.760000
    reduced_to: 73
  - symbol: Sb # 93
    coordinates: [  0.458333333333333,  0.517208190000000,  0.678675200000000 ]
    mass: 121.760000
    reduced_to: 73
  - symbol: Sb # 94
    coordinates: [  0.625000000000000,  0.517208190000000,  0.678675200000000 ]
    mass: 121.760000
    reduced_to: 73
  - symbol: Sb # 95
    coordinates: [  0.791666666666667,  0.517208190000000,  0.678675200000000 ]
    mass: 121.760000
    reduced_to: 73
  - symbol: Sb # 96
    coordinates: [  0.958333333333333,  0.517208190000000,  0.678675200000000 ]
    mass: 121.760000
    reduced_to: 73
  - symbol: Sb # 97
    coordinates: [  0.041666666666667,  0.086541335000000,  0.483471800000000 ]
    mass: 121.760000
    reduced_to: 97
  - symbol: Sb # 98
    coordinates: [  0.208333333333333,  0.086541335000000,  0.483471800000000 ]
    mass: 121.760000
    reduced_to: 97
  - symbol: Sb # 99
    coordinates: [  0.375000000000000,  0.086541335000000,  0.483471800000000 ]
    mass: 121.760000
    reduced_to: 97
  - symbol: Sb # 100
    coordinates: [  0.541666666666667,  0.086541335000000,  0.483471800000000 ]
    mass: 121.760000
    reduced_to: 97
  - symbol: Sb # 101
    coordinates: [  0.708333333333333,  0.086541335000000,  0.483471800000000 ]
    mass: 121.760000
    reduced_to: 97
  - symbol: Sb # 102
    coordinates: [  0.875000000000000,  0.086541335000000,  0.483471800000000 ]
    mass: 121.760000
    reduced_to: 97
  - symbol: Sb # 103
    coordinates: [  0.041666666666667,  0.586541335000000,  0.483471800000000 ]
    mass: 121.760000
    reduced_to: 97
  - symbol: Sb # 104
    coordinates: [  0.208333333333333,  0.586541335000000,  0.483471800000000 ]
    mass: 121.760000
    reduced_to: 97
  - symbol: Sb # 105
    coordinates: [  0.375000000000000,  0.586541335000000,  0.483471800000000 ]
    mass: 121.760000
    reduced_to: 97
  - symbol: Sb # 106
    coordinates: [  0.541666666666667,  0.586541335000000,  0.483471800000000 ]
    mass: 121.760000
    reduced_to: 97
  - symbol: Sb # 107
    coordinates: [  0.708333333333333,  0.586541335000000,  0.483471800000000 ]
    mass: 121.760000
    reduced_to: 97
  - symbol: Sb # 108
    coordinates: [  0.875000000000000,  0.586541335000000,  0.483471800000000 ]
    mass: 121.760000
    reduced_to: 97
  - symbol: Sb # 109
    coordinates: [  0.041666666666667,  0.086541335000000,  0.983471800000000 ]
    mass: 121.760000
    reduced_to: 97
  - symbol: Sb # 110
    coordinates: [  0.208333333333333,  0.086541335000000,  0.983471800000000 ]
    mass: 121.760000
    reduced_to: 97
  - symbol: Sb # 111
    coordinates: [  0.375000000000000,  0.086541335000000,  0.983471800000000 ]
    mass: 121.760000
    reduced_to: 97
  - symbol: Sb # 112
    coordinates: [  0.541666666666667,  0.086541335000000,  0.983471800000000 ]
    mass: 121.760000
    reduced_to: 97
  - symbol: Sb # 113
    coordinates: [  0.708333333333333,  0.086541335000000,  0.983471800000000 ]
    mass: 121.760000
    reduced_to: 97
  - symbol: Sb # 114
    coordinates: [  0.875000000000000,  0.086541335000000,  0.983471800000000 ]
    mass: 121.760000
    reduced_to: 97
  - symbol: Sb # 115
    coordinates: [  0.041666666666667,  0.586541335000000,  0.983471800000000 ]
    mass: 121.760000
    reduced_to: 97
  - symbol: Sb # 116
    coordinates: [  0.208333333333333,  0.586541335000000,  0.983471800000000 ]
    mass: 121.760000
    reduced_to: 97
  - symbol: Sb # 117
    coordinates: [  0.375000000000000,  0.586541335000000,  0.983471800000000 ]
    mass: 121.760000
    reduced_to: 97
  - symbol: Sb # 118
    coordinates: [  0.541666666666667,  0.586541335000000,  0.983471800000000 ]
    mass: 121.760000
    reduced_to: 97
  - symbol: Sb # 119
    coordinates: [  0.708333333333333,  0.586541335000000,  0.983471800000000 ]
    mass: 121.760000
    reduced_to: 97
  - symbol: Sb # 120
    coordinates: [  0.875000000000000,  0.586541335000000,  0.983471800000000 ]
    mass: 121.760000
    reduced_to: 97
  - symbol: Sb # 121
    coordinates: [  0.125000000000000,  0.413458665000000,  0.016528200000000 ]
    mass: 121.760000
    reduced_to: 121
  - symbol: Sb # 122
    coordinates: [  0.291666666666667,  0.413458665000000,  0.016528200000000 ]
    mass: 121.760000
    reduced_to: 121
  - symbol: Sb # 123
    coordinates: [  0.458333333333333,  0.413458665000000,  0.016528200000000 ]
    mass: 121.760000
    reduced_to: 121
  - symbol: Sb # 124
    coordinates: [  0.625000000000000,  0.413458665000000,  0.016528200000000 ]
    mass: 121.760000
    reduced_to: 121
  - symbol: Sb # 125
    coordinates: [  0.791666666666667,  0.413458665000000,  0.016528200000000 ]
    mass: 121.760000
    reduced_to: 121
  - symbol: Sb # 126
    coordinates: [  0.958333333333333,  0.413458665000000,  0.016528200000000 ]
    mass: 121.760000
    reduced_to: 121
  - symbol: Sb # 127
    coordinates: [  0.125000000000000,  0.913458665000000,  0.016528200000000 ]
    mass: 121.760000
    reduced_to: 121
  - symbol: Sb # 128
    coordinates: [  0.291666666666667,  0.913458665000000,  0.016528200000000 ]
    mass: 121.760000
    reduced_to: 121
  - symbol: Sb # 129
    coordinates: [  0.458333333333333,  0.913458665000000,  0.016528200000000 ]
    mass: 121.760000
    reduced_to: 121
  - symbol: Sb # 130
    coordinates: [  0.625000000000000,  0.913458665000000,  0.016528200000000 ]
    mass: 121.760000
    reduced_to: 121
  - symbol: Sb # 131
    coordinates: [  0.791666666666667,  0.913458665000000,  0.016528200000000 ]
    mass: 121.760000
    reduced_to: 121
  - symbol: Sb # 132
    coordinates: [  0.958333333333333,  0.913458665000000,  0.016528200000000 ]
    mass: 121.760000
    reduced_to: 121
  - symbol: Sb # 133
    coordinates: [  0.125000000000000,  0.413458665000000,  0.516528200000000 ]
    mass: 121.760000
    reduced_to: 121
  - symbol: Sb # 134
    coordinates: [  0.291666666666667,  0.413458665000000,  0.516528200000000 ]
    mass: 121.760000
    reduced_to: 121
  - symbol: Sb # 135
    coordinates: [  0.458333333333333,  0.413458665000000,  0.516528200000000 ]
    mass: 121.760000
    reduced_to: 121
  - symbol: Sb # 136
    coordinates: [  0.625000000000000,  0.413458665000000,  0.516528200000000 ]
    mass: 121.760000
    reduced_to: 121
  - symbol: Sb # 137
    coordinates: [  0.791666666666667,  0.413458665000000,  0.516528200000000 ]
    mass: 121.760000
    reduced_to: 121
  - symbol: Sb # 138
    coordinates: [  0.958333333333333,  0.413458665000000,  0.516528200000000 ]
    mass: 121.760000
    reduced_to: 121
  - symbol: Sb # 139
    coordinates: [  0.125000000000000,  0.913458665000000,  0.516528200000000 ]
    mass: 121.760000
    reduced_to: 121
  - symbol: Sb # 140
    coordinates: [  0.291666666666667,  0.913458665000000,  0.516528200000000 ]
    mass: 121.760000
    reduced_to: 121
  - symbol: Sb # 141
    coordinates: [  0.458333333333333,  0.913458665000000,  0.516528200000000 ]
    mass: 121.760000
    reduced_to: 121
  - symbol: Sb # 142
    coordinates: [  0.625000000000000,  0.913458665000000,  0.516528200000000 ]
    mass: 121.760000
    reduced_to: 121
  - symbol: Sb # 143
    coordinates: [  0.791666666666667,  0.913458665000000,  0.516528200000000 ]
    mass: 121.760000
    reduced_to: 121
  - symbol: Sb # 144
    coordinates: [  0.958333333333333,  0.913458665000000,  0.516528200000000 ]
    mass: 121.760000
    reduced_to: 121
  - symbol: Sb # 145
    coordinates: [  0.125000000000000,  0.336541335000000,  0.266528200000000 ]
    mass: 121.760000
    reduced_to: 145
  - symbol: Sb # 146
    coordinates: [  0.291666666666667,  0.336541335000000,  0.266528200000000 ]
    mass: 121.760000
    reduced_to: 145
  - symbol: Sb # 147
    coordinates: [  0.458333333333333,  0.336541335000000,  0.266528200000000 ]
    mass: 121.760000
    reduced_to: 145
  - symbol: Sb # 148
    coordinates: [  0.625000000000000,  0.336541335000000,  0.266528200000000 ]
    mass: 121.760000
    reduced_to: 145
  - symbol: Sb # 149
    coordinates: [  0.791666666666667,  0.336541335000000,  0.266528200000000 ]
    mass: 121.760000
    reduced_to: 145
  - symbol: Sb # 150
    coordinates: [  0.958333333333333,  0.336541335000000,  0.266528200000000 ]
    mass: 121.760000
    reduced_to: 145
  - symbol: Sb # 151
    coordinates: [  0.125000000000000,  0.836541335000000,  0.266528200000000 ]
    mass: 121.760000
    reduced_to: 145
  - symbol: Sb # 152
    coordinates: [  0.291666666666667,  0.836541335000000,  0.266528200000000 ]
    mass: 121.760000
    reduced_to: 145
  - symbol: Sb # 153
    coordinates: [  0.458333333333333,  0.836541335000000,  0.266528200000000 ]
    mass: 121.760000
    reduced_to: 145
  - symbol: Sb # 154
    coordinates: [  0.625000000000000,  0.836541335000000,  0.266528200000000 ]
    mass: 121.760000
    reduced_to: 145
  - symbol: Sb # 155
    coordinates: [  0.791666666666667,  0.836541335000000,  0.266528200000000 ]
    mass: 121.760000
    reduced_to: 145
  - symbol: Sb # 156
    coordinates: [  0.958333333333333,  0.836541335000000,  0.266528200000000 ]
    mass: 121.760000
    reduced_to: 145
  - symbol: Sb # 157
    coordinates: [  0.125000000000000,  0.336541335000000,  0.766528200000000 ]
    mass: 121.760000
    reduced_to: 145
  - symbol: Sb # 158
    coordinates: [  0.291666666666667,  0.336541335000000,  0.766528200000000 ]
    mass: 121.760000
    reduced_to: 145
  - symbol: Sb # 159
    coordinates: [  0.458333333333333,  0.336541335000000,  0.766528200000000 ]
    mass: 121.760000
    reduced_to: 145
  - symbol: Sb # 160
    coordinates: [  0.625000000000000,  0.336541335000000,  0.766528200000000 ]
    mass: 121.760000
    reduced_to: 145
  - symbol: Sb # 161
    coordinates: [  0.791666666666667,  0.336541335000000,  0.766528200000000 ]
    mass: 121.760000
    reduced_to: 145
  - symbol: Sb # 162
    coordinates: [  0.958333333333333,  0.336541335000000,  0.766528200000000 ]
    mass: 121.760000
    reduced_to: 145
  - symbol: Sb # 163
    coordinates: [  0.125000000000000,  0.836541335000000,  0.766528200000000 ]
    mass: 121.760000
    reduced_to: 145
  - symbol: Sb # 164
    coordinates: [  0.291666666666667,  0.836541335000000,  0.766528200000000 ]
    mass: 121.760000
    reduced_to: 145
  - symbol: Sb # 165