phonopy:
  version: "2.21.0"
  frequency_unit_conversion_factor: 15.633302
  symmetry_tolerance: 1.00000e-04

space_group:
  type: "P-3m1"
  number: 164
  Hall_symbol: "-P 3 2\""

primitive_matrix:
- [  1.000000000000000, -0.000000000000000,  0.000000000000000 ]
- [ -0.000000000000000,  1.000000000000000,  0.000000000000000 ]
- [  0.000000000000000,  0.000000000000000,  1.000000000000000 ]

supercell_matrix:
- [   5,   5,   0 ]
- [  -3,   3,   0 ]
- [   0,   0,   3 ]

primitive_cell:
  lattice:
  - [     2.248582276503018,    -3.894658747902116,     0.000000000000000 ] # a
  - [     2.248582276503017,     3.894658747902116,     0.000000000000000 ] # b
  - [     0.000000000000000,     0.000000000000000,     7.478762692596546 ] # c
  points:
  - symbol: Ca # 1
    coordinates: [  0.000000000000000,  0.000000000000000,  0.000000000000000 ]
    mass: 40.078000
  - symbol: Zn # 2
    coordinates: [  0.333333333333335,  0.666666666666665,  0.633505810316585 ]
    mass: 65.380000
  - symbol: Zn # 3
    coordinates: [  0.666666666666664,  0.333333333333336,  0.366494189683415 ]
    mass: 65.380000
  - symbol: Sb # 4
    coordinates: [  0.333333333333335,  0.666666666666665,  0.257221306411680 ]
    mass: 121.760000
  - symbol: Sb # 5
    coordinates: [  0.666666666666664,  0.333333333333336,  0.742778693588321 ]
    mass: 121.760000
  reciprocal_lattice: # without 2pi
  - [     0.222362332579441,    -0.128380952572373,     0.000000000000000 ] # a*
  - [     0.222362332579441,     0.128380952572373,     0.000000000000000 ] # b*
  - [     0.000000000000000,     0.000000000000000,     0.133711957592922 ] # c*

unit_cell:
  lattice:
  - [     2.248582276503018,    -3.894658747902116,     0.000000000000000 ] # a
  - [     2.248582276503018,     3.894658747902116,     0.000000000000000 ] # b
  - [     0.000000000000000,     0.000000000000000,     7.478762692596548 ] # c
  points:
  - symbol: Ca # 1
    coordinates: [  0.000000000000000,  0.000000000000000,  0.000000000000000 ]
    mass: 40.078000
    reduced_to: 1
  - symbol: Zn # 2
    coordinates: [  0.333333333333336,  0.666666666666664,  0.633505810316585 ]
    mass: 65.380000
    reduced_to: 2
  - symbol: Zn # 3
    coordinates: [  0.666666666666664,  0.333333333333336,  0.366494189683415 ]
    mass: 65.380000
    reduced_to: 3
  - symbol: Sb # 4
    coordinates: [  0.333333333333336,  0.666666666666664,  0.257221306411680 ]
    mass: 121.760000
    reduced_to: 4
  - symbol: Sb # 5
    coordinates: [  0.666666666666664,  0.333333333333336,  0.742778693588320 ]
    mass: 121.760000
    reduced_to: 5

supercell:
  lattice:
  - [     4.497164553006036,   -31.157269983216928,     0.000000000000000 ] # a
  - [    17.988658212024141,    -7.789317495804234,     0.000000000000000 ] # b
  - [     0.000000000000000,     0.000000000000000,    22.436288077789644 ] # c
  points:
  - symbol: Ca # 1
    coordinates: [  0.000000000000000,  0.000000000000000,  0.000000000000000 ]
    mass: 40.078000
    reduced_to: 1
  - symbol: Ca # 2
    coordinates: [  0.100000000000000,  0.100000000000000,  0.000000000000000 ]
    mass: 40.078000
    reduced_to: 1
  - symbol: Ca # 3
    coordinates: [  0.200000000000000,  0.200000000000000,  0.000000000000000 ]
    mass: 40.078000
    reduced_to: 1
  - symbol: Ca # 4
    coordinates: [  0.300000000000000,  0.300000000000000,  0.000000000000000 ]
    mass: 40.078000
    reduced_to: 1
  - symbol: Ca # 5
    coordinates: [  0.400000000000000,  0.400000000000000,  0.000000000000000 ]
    mass: 40.078000
    reduced_to: 1
  - symbol: Ca # 6
    coordinates: [  0.500000000000000,  0.500000000000000,  0.000000000000000 ]
    mass: 40.078000
    reduced_to: 1
  - symbol: Ca # 7
    coordinates: [  0.600000000000000,  0.600000000000000,  0.000000000000000 ]
    mass: 40.078000
    reduced_to: 1
  - symbol: Ca # 8
    coordinates: [  0.700000000000000,  0.700000000000000,  0.000000000000000 ]
    mass: 40.078000
    reduced_to: 1
  - symbol: Ca # 9
    coordinates: [  0.800000000000000,  0.800000000000000,  0.000000000000000 ]
    mass: 40.078000
    reduced_to: 1
  - symbol: Ca # 10
    coordinates: [  0.900000000000000,  0.900000000000000,  0.000000000000000 ]
    mass: 40.078000
    reduced_to: 1
  - symbol: Ca # 11
    coordinates: [  0.833333333333333,  0.166666666666667,  0.000000000000000 ]
    mass: 40.078000
    reduced_to: 1
  - symbol: Ca # 12
    coordinates: [  0.933333333333333,  0.266666666666667,  0.000000000000000 ]
    mass: 40.078000
    reduced_to: 1
  - symbol: Ca # 13
    coordinates: [  0.033333333333333,  0.366666666666667,  0.000000000000000 ]
    mass: 40.078000
    reduced_to: 1
  - symbol: Ca # 14
    coordinates: [  0.133333333333333,  0.466666666666667,  0.000000000000000 ]
    mass: 40.078000
    reduced_to: 1
  - symbol: Ca # 15
    coordinates: [  0.233333333333333,  0.566666666666667,  0.000000000000000 ]
    mass: 40.078000
    reduced_to: 1
  - symbol: Ca # 16
    coordinates: [  0.333333333333333,  0.666666666666667,  0.000000000000000 ]
    mass: 40.078000
    reduced_to: 1
  - symbol: Ca # 17
    coordinates: [  0.433333333333333,  0.766666666666667,  0.000000000000000 ]
    mass: 40.078000
    reduced_to: 1
  - symbol: Ca # 18
    coordinates: [  0.533333333333333,  0.866666666666667,  0.000000000000000 ]
    mass: 40.078000
    reduced_to: 1
  - symbol: Ca # 19
    coordinates: [  0.633333333333333,  0.966666666666667,  0.000000000000000 ]
    mass: 40.078000
    reduced_to: 1
  - symbol: Ca # 20
    coordinates: [  0.733333333333333,  0.066666666666667,  0.000000000000000 ]
    mass: 40.078000
    reduced_to: 1
  - symbol: Ca # 21
    coordinates: [  0.666666666666667,  0.333333333333333,  0.000000000000000 ]
    mass: 40.078000
    reduced_to: 1
  - symbol: Ca # 22
    coordinates: [  0.766666666666667,  0.433333333333333,  0.000000000000000 ]
    mass: 40.078000
    reduced_to: 1
  - symbol: Ca # 23
    coordinates: [  0.866666666666667,  0.533333333333333,  0.000000000000000 ]
    mass: 40.078000
    reduced_to: 1
  - symbol: Ca # 24
    coordinates: [  0.966666666666667,  0.633333333333333,  0.000000000000000 ]
    mass: 40.078000
    reduced_to: 1
  - symbol: Ca # 25
    coordinates: [  0.066666666666667,  0.733333333333333,  0.000000000000000 ]
    mass: 40.078000
    reduced_to: 1
  - symbol: Ca # 26
    coordinates: [  0.166666666666667,  0.833333333333333,  0.000000000000000 ]
    mass: 40.078000
    reduced_to: 1
  - symbol: Ca # 27
    coordinates: [  0.266666666666667,  0.933333333333333,  0.000000000000000 ]
    mass: 40.078000
    reduced_to: 1
  - symbol: Ca # 28
    coordinates: [  0.366666666666667,  0.033333333333333,  0.000000000000000 ]
    mass: 40.078000
    reduced_to: 1
  - symbol: Ca # 29
    coordinates: [  0.466666666666667,  0.133333333333333,  0.000000000000000 ]
    mass: 40.078000
    reduced_to: 1
  - symbol: Ca # 30
    coordinates: [  0.566666666666667,  0.233333333333333,  0.000000000000000 ]
    mass: 40.078000
    reduced_to: 1
  - symbol: Ca # 31
    coordinates: [  0.000000000000000,  0.000000000000000,  0.333333333333333 ]
    mass: 40.078000
    reduced_to: 1
  - symbol: Ca # 32
    coordinates: [  0.100000000000000,  0.100000000000000,  0.333333333333333 ]
    mass: 40.078000
    reduced_to: 1
  - symbol: Ca # 33
    coordinates: [  0.200000000000000,  0.200000000000000,  0.333333333333333 ]
    mass: 40.078000
    reduced_to: 1
  - symbol: Ca # 34
    coordinates: [  0.300000000000000,  0.300000000000000,  0.333333333333333 ]
    mass: 40.078000
    reduced_to: 1
  - symbol: Ca # 35
    coordinates: [  0.400000000000000,  0.400000000000000,  0.333333333333333 ]
    mass: 40.078000
    reduced_to: 1
  - symbol: Ca # 36
    coordinates: [  0.500000000000000,  0.500000000000000,  0.333333333333333 ]
    mass: 40.078000
    reduced_to: 1
  - symbol: Ca # 37
    coordinates: [  0.600000000000000,  0.600000000000000,  0.333333333333333 ]
    mass: 40.078000
    reduced_to: 1
  - symbol: Ca # 38
    coordinates: [  0.700000000000000,  0.700000000000000,  0.333333333333333 ]
    mass: 40.078000
    reduced_to: 1
  - symbol: Ca # 39
    coordinates: [  0.800000000000000,  0.800000000000000,  0.333333333333333 ]
    mass: 40.078000
    reduced_to: 1
  - symbol: Ca # 40
    coordinates: [  0.900000000000000,  0.900000000000000,  0.333333333333333 ]
    mass: 40.078000
    reduced_to: 1
  - symbol: Ca # 41
    coordinates: [  0.833333333333333,  0.166666666666667,  0.333333333333333 ]
    mass: 40.078000
    reduced_to: 1
  - symbol: Ca # 42
    coordinates: [  0.933333333333333,  0.266666666666667,  0.333333333333333 ]
    mass: 40.078000
    reduced_to: 1
  - symbol: Ca # 43
    coordinates: [  0.033333333333333,  0.366666666666667,  0.333333333333333 ]
    mass: 40.078000
    reduced_to: 1
  - symbol: Ca # 44
    coordinates: [  0.133333333333333,  0.466666666666667,  0.333333333333333 ]
    mass: 40.078000
    reduced_to: 1
  - symbol: Ca # 45
    coordinates: [  0.233333333333333,  0.566666666666667,  0.333333333333333 ]
    mass: 40.078000
    reduced_to: 1
  - symbol: Ca # 46
    coordinates: [  0.333333333333333,  0.666666666666667,  0.333333333333333 ]
    mass: 40.078000
    reduced_to: 1
  - symbol: Ca # 47
    coordinates: [  0.433333333333333,  0.766666666666667,  0.333333333333333 ]
    mass: 40.078000
    reduced_to: 1
  - symbol: Ca # 48
    coordinates: [  0.533333333333333,  0.866666666666667,  0.333333333333333 ]
    mass: 40.078000
    reduced_to: 1
  - symbol: Ca # 49
    coordinates: [  0.633333333333333,  0.966666666666667,  0.333333333333333 ]
    mass: 40.078000
    reduced_to: 1
  - symbol: Ca # 50
    coordinates: [  0.733333333333333,  0.066666666666667,  0.333333333333333 ]
    mass: 40.078000
    reduced_to: 1
  - symbol: Ca # 51
    coordinates: [  0.666666666666667,  0.333333333333333,  0.333333333333333 ]
    mass: 40.078000
    reduced_to: 1
  - symbol: Ca # 52
    coordinates: [  0.766666666666667,  0.433333333333333,  0.333333333333333 ]
    mass: 40.078000
    reduced_to: 1
  - symbol: Ca # 53
    coordinates: [  0.866666666666667,  0.533333333333333,  0.333333333333333 ]
    mass: 40.078000
    reduced_to: 1
  - symbol: Ca # 54
    coordinates: [  0.966666666666667,  0.633333333333333,  0.333333333333333 ]
    mass: 40.078000
    reduced_to: 1
  - symbol: Ca # 55
    coordinates: [  0.066666666666667,  0.733333333333333,  0.333333333333333 ]
    mass: 40.078000
    reduced_to: 1
  - symbol: Ca # 56
    coordinates: [  0.166666666666667,  0.833333333333333,  0.333333333333333 ]
    mass: 40.078000
    reduced_to: 1
  - symbol: Ca # 57
    coordinates: [  0.266666666666667,  0.933333333333333,  0.333333333333333 ]
    mass: 40.078000
    reduced_to: 1
  - symbol: Ca # 58
    coordinates: [  0.366666666666667,  0.033333333333333,  0.333333333333333 ]
    mass: 40.078000
    reduced_to: 1
  - symbol: Ca # 59
    coordinates: [  0.466666666666667,  0.133333333333333,  0.333333333333333 ]
    mass: 40.078000
    reduced_to: 1
  - symbol: Ca # 60
    coordinates: [  0.566666666666667,  0.233333333333333,  0.333333333333333 ]
    mass: 40.078000
    reduced_to: 1
  - symbol: Ca # 61
    coordinates: [  0.000000000000000,  0.000000000000000,  0.666666666666667 ]
    mass: 40.078000
    reduced_to: 1
  - symbol: Ca # 62
    coordinates: [  0.100000000000000,  0.100000000000000,  0.666666666666667 ]
    mass: 40.078000
    reduced_to: 1
  - symbol: Ca # 63
    coordinates: [  0.200000000000000,  0.200000000000000,  0.666666666666667 ]
    mass: 40.078000
    reduced_to: 1
  - symbol: Ca # 64
    coordinates: [  0.300000000000000,  0.300000000000000,  0.666666666666667 ]
    mass: 40.078000
    reduced_to: 1
  - symbol: Ca # 65
    coordinates: [  0.400000000000000,  0.400000000000000,  0.666666666666667 ]
    mass: 40.078000
    reduced_to: 1
  - symbol: Ca # 66
    coordinates: [  0.500000000000000,  0.500000000000000,  0.666666666666667 ]
    mass: 40.078000
    reduced_to: 1
  - symbol: Ca # 67
    coordinates: [  0.600000000000000,  0.600000000000000,  0.666666666666667 ]
    mass: 40.078000
    reduced_to: 1
  - symbol: Ca # 68
    coordinates: [  0.700000000000000,  0.700000000000000,  0.666666666666667 ]
    mass: 40.078000
    reduced_to: 1
  - symbol: Ca # 69
    coordinates: [  0.800000000000000,  0.800000000000000,  0.666666666666667 ]
    mass: 40.078000
    reduced_to: 1
  - symbol: Ca # 70
    coordinates: [  0.900000000000000,  0.900000000000000,  0.666666666666667 ]
    mass: 40.078000
    reduced_to: 1
  - symbol: Ca # 71
    coordinates: [  0.833333333333333,  0.166666666666667,  0.666666666666667 ]
    mass: 40.078000
    reduced_to: 1
  - symbol: Ca # 72
    coordinates: [  0.933333333333333,  0.266666666666667,  0.666666666666667 ]
    mass: 40.078000
    reduced_to: 1
  - symbol: Ca # 73
    coordinates: [  0.033333333333333,  0.366666666666667,  0.666666666666667 ]
    mass: 40.078000
    reduced_to: 1
  - symbol: Ca # 74
    coordinates: [  0.133333333333333,  0.466666666666667,  0.666666666666667 ]
    mass: 40.078000
    reduced_to: 1
  - symbol: Ca # 75
    coordinates: [  0.233333333333333,  0.566666666666667,  0.666666666666667 ]
    mass: 40.078000
    reduced_to: 1
  - symbol: Ca # 76
    coordinates: [  0.333333333333333,  0.666666666666667,  0.666666666666667 ]
    mass: 40.078000
    reduced_to: 1
  - symbol: Ca # 77
    coordinates: [  0.433333333333333,  0.766666666666667,  0.666666666666667 ]
    mass: 40.078000
    reduced_to: 1
  - symbol: Ca # 78
    coordinates: [  0.533333333333333,  0.866666666666667,  0.666666666666667 ]
    mass: 40.078000
    reduced_to: 1
  - symbol: Ca # 79
    coordinates: [  0.633333333333333,  0.966666666666667,  0.666666666666667 ]
    mass: 40.078000
    reduced_to: 1
  - symbol: Ca # 80
    coordinates: [  0.733333333333333,  0.066666666666667,  0.666666666666667 ]
    mass: 40.078000
    reduced_to: 1
  - symbol: Ca # 81
    coordinates: [  0.666666666666667,  0.333333333333333,  0.666666666666667 ]
    mass: 40.078000
    reduced_to: 1
  - symbol: Ca # 82
    coordinates: [  0.766666666666667,  0.433333333333333,  0.666666666666667 ]
    mass: 40.078000
    reduced_to: 1
  - symbol: Ca # 83
    coordinates: [  0.866666666666667,  0.533333333333333,  0.666666666666667 ]
    mass: 40.078000
    reduced_to: 1
  - symbol: Ca # 84
    coordinates: [  0.966666666666667,  0.633333333333333,  0.666666666666667 ]
    mass: 40.078000
    reduced_to: 1
  - symbol: Ca # 85
    coordinates: [  0.066666666666667,  0.733333333333333,  0.666666666666667 ]
    mass: 40.078000
    reduced_to: 1
  - symbol: Ca # 86
    coordinates: [  0.166666666666667,  0.833333333333333,  0.666666666666667 ]
    mass: 40.078000
    reduced_to: 1
  - symbol: Ca # 87
    coordinates: [  0.266666666666667,  0.933333333333333,  0.666666666666667 ]
    mass: 40.078000
    reduced_to: 1
  - symbol: Ca # 88
    coordinates: [  0.366666666666667,  0.033333333333333,  0.666666666666667 ]
    mass: 40.078000
    reduced_to: 1
  - symbol: Ca # 89
    coordinates: [  0.466666666666667,  0.133333333333333,  0.666666666666667 ]
    mass: 40.078000
    reduced_to: 1
  - symbol: Ca # 90
    coordinates: [  0.566666666666667,  0.233333333333333,  0.666666666666667 ]
    mass: 40.078000
    reduced_to: 1
  - symbol: Zn # 91
    coordinates: [  0.922222222222223,  0.144444444444444,  0.211168603438862 ]
    mass: 65.380000
    reduced_to: 91
  - symbol: Zn # 92
    coordinates: [  0.022222222222223,  0.244444444444444,  0.211168603438862 ]
    mass: 65.380000
    reduced_to: 91
  - symbol: Zn # 93
    coordinates: [  0.122222222222223,  0.344444444444444,  0.211168603438862 ]
    mass: 65.380000
    reduced_to: 91
  - symbol: Zn # 94
    coordinates: [  0.222222222222223,  0.444444444444444,  0.211168603438862 ]
    mass: 65.380000
    reduced_to: 91
  - symbol: Zn # 95
    coordinates: [  0.322222222222223,  0.544444444444444,  0.211168603438862 ]
    mass: 65.380000
    reduced_to: 91
  - symbol: Zn # 96
    coordinates: [  0.422222222222223,  0.644444444444444,  0.211168603438862 ]
    mass: 65.380000
    reduced_to: 91
  - symbol: Zn # 97
    coordinates: [  0.522222222222223,  0.744444444444444,  0.211168603438862 ]
    mass: 65.380000
    reduced_to: 91
  - symbol: Zn # 98
    coordinates: [  0.622222222222223,  0.844444444444444,  0.211168603438862 ]
    mass: 65.380000
    reduced_to: 91
  - symbol: Zn # 99
    coordinates: [  0.722222222222223,  0.944444444444444,  0.211168603438862 ]
    mass: 65.380000
    reduced_to: 91
  - symbol: Zn # 100
    coordinates: [  0.822222222222223,  0.044444444444444,  0.211168603438862 ]
    mass: 65.380000
    reduced_to: 91
  - symbol: Zn # 101
    coordinates: [  0.755555555555556,  0.311111111111111,  0.211168603438862 ]
    mass: 65.380000
    reduced_to: 91
  - symbol: Zn # 102
    coordinates: [  0.855555555555556,  0.411111111111111,  0.211168603438862 ]
    mass: 65.380000
    reduced_to: 91
  - symbol: Zn # 103
    coordinates: [  0.955555555555556,  0.511111111111111,  0.211168603438862 ]
    mass: 65.380000
    reduced_to: 91
  - symbol: Zn # 104
    coordinates: [  0.055555555555556,  0.611111111111111,  0.211168603438862 ]
    mass: 65.380000
    reduced_to: 91
  - symbol: Zn # 105
    coordinates: [  0.155555555555556,  0.711111111111111,  0.211168603438862 ]
    mass: 65.380000
    reduced_to: 91
  - symbol: Zn # 106
    coordinates: [  0.255555555555556,  0.811111111111111,  0.211168603438862 ]
    mass: 65.380000
    reduced_to: 91
  - symbol: Zn # 107
    coordinates: [  0.355555555555556,  0.911111111111111,  0.211168603438862 ]
    mass: 65.380000
    reduced_to: 91
  - symbol: Zn # 108
    coordinates: [  0.455555555555556,  0.011111111111111,  0.211168603438862 ]
    mass: 65.380000
    reduced_to: 91
  - symbol: Zn # 109
    coordinates: [  0.555555555555556,  0.111111111111111,  0.211168603438862 ]
    mass: 65.380000
    reduced_to: 91
  - symbol: Zn # 110
    coordinates: [  0.655555555555556,  0.211111111111111,  0.211168603438862 ]
    mass: 65.380000
    reduced_to: 91
  - symbol: Zn # 111
    coordinates: [  0.588888888888889,  0.477777777777778,  0.211168603438862 ]
    mass: 65.380000
    reduced_to: 91
  - symbol: Zn # 112
    coordinates: [  0.688888888888890,  0.577777777777778,  0.211168603438862 ]
    mass: 65.380000
    reduced_to: 91
  - symbol: Zn # 113
    coordinates: [  0.788888888888890,  0.677777777777778,  0.211168603438862 ]
    mass: 65.380000
    reduced_to: 91
  - symbol: Zn # 114
    coordinates: [  0.888888888888890,  0.777777777777778,  0.211168603438862 ]
    mass: 65.380000
    reduced_to: 91
  - symbol: Zn # 115
    coordinates: [  0.988888888888890,  0.877777777777778,  0.211168603438862 ]
    mass: 65.380000
    reduced_to: 91
  - symbol: Zn # 116
    coordinates: [  0.088888888888890,  0.977777777777778,  0.211168603438862 ]
    mass: 65.380000
    reduced_to: 91
  - symbol: Zn # 117
    coordinates: [  0.188888888888890,  0.077777777777778,  0.211168603438862 ]
    mass: 65.380000
    reduced_to: 91
  - symbol: Zn # 118
    coordinates: [  0.288888888888890,  0.177777777777778,  0.211168603438862 ]
    mass: 65.380000
    reduced_to: 91
  - symbol: Zn # 119
    coordinates: [  0.388888888888890,  0.277777777777778,  0.211168603438862 ]
    mass: 65.380000
    reduced_to: 91
  - symbol: Zn # 120
    coordinates: [  0.488888888888890,  0.377777777777778,  0.211168603438862 ]
    mass: 65.380000
    reduced_to: 91
  - symbol: Zn # 121
    coordinates: [  0.922222222222223,  0.144444444444444,  0.544501936772195 ]
    mass: 65.380000
    reduced_to: 91
  - symbol: Zn # 122
    coordinates: [  0.022222222222223,  0.244444444444444,  0.544501936772195 ]
    mass: 65.380000
    reduced_to: 91
  - symbol: Zn # 123
    coordinates: [  0.122222222222223,  0.344444444444444,  0.544501936772195 ]
    mass: 65.380000
    reduced_to: 91
  - symbol: Zn # 124
    coordinates: [  0.222222222222223,  0.444444444444444,  0.544501936772195 ]
    mass: 65.380000
    reduced_to: 91
  - symbol: Zn # 125
    coordinates: [  0.322222222222223,  0.544444444444444,  0.544501936772195 ]
    mass: 65.380000
    reduced_to: 91
  - symbol: Zn # 126
    coordinates: [  0.422222222222223,  0.644444444444444,  0.544501936772195 ]
    mass: 65.380000
    reduced_to: 91
  - symbol: Zn # 127
    coordinates: [  0.522222222222223,  0.744444444444444,  0.544501936772195 ]
    mass: 65.380000
    reduced_to: 91
  - symbol: Zn # 128
    coordinates: [  0.622222222222223,  0.844444444444444,  0.544501936772195 ]
    mass: 65.380000
    reduced_to: 91
  - symbol: Zn # 129
    coordinates: [  0.722222222222223,  0.944444444444444,  0.544501936772195 ]
    mass: 65.380000
    reduced_to: 91
  - symbol: Zn # 130
    coordinates: [  0.822222222222223,  0.044444444444444,  0.544501936772195 ]
    mass: 65.380000
    reduced_to: 91
  - symbol: Zn # 131
    coordinates: [  0.755555555555556,  0.311111111111111,  0.544501936772195 ]
    mass: 65.380000
    reduced_to: 91
  - symbol: Zn # 132
    coordinates: [  0.855555555555556,  0.411111111111111,  0.544501936772195 ]
    mass: 65.380000
    reduced_to: 91
  - symbol: Zn # 133
    coordinates: [  0.955555555555556,  0.511111111111111,  0.544501936772195 ]
    mass: 65.380000
    reduced_to: 91
  - symbol: Zn # 134
    coordinates: [  0.055555555555556,  0.611111111111111,  0.544501936772195 ]
    mass: 65.380000
    reduced_to: 91
  - symbol: Zn # 135
    coordinates: [  0.155555555555556,  0.711111111111111,  0.544501936772195 ]
    mass: 65.380000
    reduced_to: 91
  - symbol: Zn # 136
    coordinates: [  0.255555555555556,  0.811111111111111,  0.544501936772195 ]
    mass: 65.380000
    reduced_to: 91
  - symbol: Zn # 137
    coordinates: [  0.355555555555556,  0.911111111111111,  0.544501936772195 ]
    mass: 65.380000
    reduced_to: 91
  - symbol: Zn # 138
    coordinates: [  0.455555555555556,  0.011111111111111,  0.544501936772195 ]
    mass: 65.380000
    reduced_to: 91
  - symbol: Zn # 139
    coordinates: [  0.555555555555556,  0.111111111111111,  0.544501936772195 ]
    mass: 65.380000
    reduced_to: 91
  - symbol: Zn # 140
    coordinates: [  0.655555555555556,  0.211111111111111,  0.544501936772195 ]
    mass: 65.380000
    reduced_to: 91
  - symbol: Zn # 141
    coordinates: [  0.588888888888889,  0.477777777777778,  0.544501936772195 ]
    mass: 65.380000
    reduced_to: 91
  - symbol: Zn # 142
    coordinates: [  0.688888888888890,  0.577777777777778,  0.544501936772195 ]
    mass: 65.380000
    reduced_to: 91
  - symbol: Zn # 143
    coordinates: [  0.788888888888890,  0.677777777777778,  0.544501936772195 ]
    mass: 65.380000
    reduced_to: 91
  - symbol: Zn # 144
    coordinates: [  0.888888888888890,  0.777777777777778,  0.544501936772195 ]
    mass: 65.380000
    reduced_to: 91
  - symbol: Zn # 145
    coordinates: [  0.988888888888890,  0.877777777777778,  0.544501936772195 ]
    mass: 65.380000
    reduced_to: 91
  - symbol: Zn # 146
    coordinates: [  0.088888888888890,  0.977777777777778,  0.544501936772195 ]
    mass: 65.380000
    reduced_to: 91
  - symbol: Zn # 147
    coordinates: [  0.188888888888890,  0.077777777777778,  0.544501936772195 ]
    mass: 65.380000
    reduced_to: 91
  - symbol: Zn # 148
    coordinates: [  0.288888888888890,  0.177777777777778,  0.544501936772195 ]
    mass: 65.380000
    reduced_to: 91
  - symbol: Zn # 149
    coordinates: [  0.388888888888890,  0.277777777777778,  0.544501936772195 ]
    mass: 65.380000
    reduced_to: 91
  - symbol: Zn # 150
    coordinates: [  0.488888888888890,  0.377777777777778,  0.544501936772195 ]
    mass: 65.380000
    reduced_to: 91
  - symbol: Zn # 151
    coordinates: [  0.922222222222223,  0.144444444444444,  0.877835270105528 ]
    mass: 65.380000
    reduced_to: 91
  - symbol: Zn # 152
    coordinates: [  0.022222222222223,  0.244444444444444,  0.877835270105528 ]
    mass: 65.380000
    reduced_to: 91
  - symbol: Zn # 153
    coordinates: [  0.122222222222223,  0.344444444444444,  0.877835270105528 ]
    mass: 65.380000
    reduced_to: 91
  - symbol: Zn # 154
    coordinates: [  0.222222222222223,  0.444444444444444,  0.877835270105528 ]
    mass: 65.380000
    reduced_to: 91
  - symbol: Zn # 155
    coordinates: [  0.322222222222223,  0.544444444444444,  0.877835270105528 ]
    mass: 65.380000
    reduced_to: 91
  - symbol: Zn # 156
    coordinates: [  0.422222222222223,  0.644444444444444,  0.877835270105528 ]
    mass: 65.380000
    reduced_to: 91
  - symbol: Zn # 157
    coordinates: [  0.522222222222223,  0.744444444444444,  0.877835270105528 ]
    mass: 65.380000
    reduced_to: 91
  - symbol: Zn # 158
    coordinates: [  0.622222222222223,  0.844444444444444,  0.877835270105528 ]
    mass: 65.380000
    reduced_to: 91
  - symbol: Zn # 159
    coordinates: [  0.722222222222223,  0.944444444444444,  0.877835270105528 ]
    mass: 65.380000
    reduced_to: 91
  - symbol: Zn # 160
    coordinates: [  0.822222222222223,  0.044444444444444,  0.877835270105528 ]
    mass: 65.380000
    reduced_to: 91
  - symbol: Zn # 161
    coordinates: [  0.755555555555556,  0.311111111111111,  0.877835270105528 ]
    mass: 65.380000
    reduced_to: 91
  - symbol: Zn # 162
    coordinates: [  0.855555555555556,  0.411111111111111,  0.877835270105528 ]
    mass: 65.380000
    reduced_to: 91
  - symbol: Zn # 163
    coordinates: [  0.955555555555556,  0.511111111111111,  0.877835270105528 ]
    mass: 65.380000
    reduced_to: 91
  - symbol: Zn # 164
    coordinates: [  0.055555555555556,  0.611111111111111,  0.877835270105528 ]
    mass: 65.380000
    reduced_to: 91
  - symbol: Zn # 165
    coordinates: [  0.155555555555556,  0.711111111111111,  0.877835270105528 ]
    mass: 65.380000
    reduced_to: 91
  - symbol: Zn # 166
    coordinates: [  0.255555555555556,  0.811111111111111,  0.877835270105528 ]
    mass: 65.380000
    reduced_to: 91
  - symbol: Zn # 167
    coordinates: [  0.355555555555556,  0.911111111111111,  0.877835270105528 ]
    mass: 65.380000
    reduced_to: 91
  - symbol: Zn # 168
    coordinates: [  0.455555555555556,  0.011111111111111,  0.877835270105528 ]
    mass: 65.380000
    reduced_to: 91
  - symbol: Zn # 169
    coordinates: [  0.555555555555556,  0.111111111111111,  0.877835270105528 ]
    mass: 65.380000
    reduced_to: 91
  - symbol: Zn # 170
    coordinates: [  0.655555555555556,  0.211111111111111,  0.877835270105528 ]
    mass: 65.380000
    reduced_to: 91
  - symbol: Zn # 171
    coordinates: [  0.588888888888889,  0.477777777777778,  0.877835270105528 ]
    mass: 65.380000
    reduced_to: 91
  - symbol: Zn # 172
    coordinates: [  0.688888888888890,  0.577777777777778,  0.877835270105528 ]
    mass: 65.380000
    reduced_to: 91
  - symbol: Zn # 173
    coordinates: [  0.788888888888890,  0.677777777777778,  0.877835270105528 ]
    mass: 65.380000
    reduced_to: 91
  - symbol: Zn # 174
    coordinates: [  0.888888888888890,  0.777777777777778,  0.877835270105528 ]
    mass: 65.380000
    reduced_to: 91
  - symbol: Zn # 175
    coordinates: [  0.988888888888890,  0.877777777777778,  0.877835270105528 ]
    mass: 65.380000
    reduced_to: 91
  - symbol: Zn # 176
    coordinates: [  0.088888888888890,  0.977777777777778,  0.877835270105528 ]
    mass: 65.380000
    reduced_to: 91
  - symbol: Zn # 177
    coordinates: [  0.188888888888890,  0.077777777777778,  0.877835270105528 ]
    mass: 65.380000
    reduced_to: 91
  - symbol: Zn # 178
    coordinates: [  0.288888888888890,  0.177777777777778,  0.877835270105528 ]
    mass: 65.380000
    reduced_to: 91
  - symbol: Zn # 179
    coordinates: [  0.388888888888890,  0.277777777777778,  0.877835270105528 ]
    mass: 65.380000
    reduced_to: 91
  - symbol: Zn # 180
    coordinates: [  0.488888888888890,  0.377777777777778,  0.877835270105528 ]
    mass: 65.380000
    reduced_to: 91
  - symbol: Zn # 181
    coordinates: [  0.011111111111110,  0.122222222222222,  0.122164729894472 ]
    mass: 65.380000
    reduced_to: 181
  - symbol: Zn # 182
    coordinates: [  0.111111111111110,  0.222222222222222,  0.122164729894472 ]
    mass: 65.380000
    reduced_to: 181
  - symbol: Zn # 183
    coordinates: [  0.211111111111110,  0.322222222222222,  0.122164729894472 ]
    mass: 65.380000
    reduced_to: 181
  - symbol: Zn # 184
    coordinates: [  0.311111111111111,  0.422222222222222,  0.122164729894472 ]
    mass: 65.380000
    reduced_to: 181
  - symbol: Zn # 185
    coordinates: [  0.411111111111110,  0.522222222222222,  0.122164729894472 ]
    mass: 65.380000
    reduced_to: 181
  - symbol: Zn # 186
    coordinates: [  0.511111111111111,  0.622222222222222,  0.122164729894472 ]
    mass: 65.380000
    reduced_to: 181
  - symbol: Zn # 187
    coordinates: [  0.611111111111111,  0.722222222222222,  0.122164729894472 ]
    mass: 65.380000
    reduced_to: 181
  - symbol: Zn # 188
    coordinates: [  0.711111111111111,  0.822222222222222,  0.122164729894472 ]
    mass: 65.380000
    reduced_to: 181
  - symbol: Zn # 189
    coordinates: [  0.811111111111111,  0.922222222222222,  0.122164729894472 ]
    mass: 65.380000
    reduced_to: 181
  - symbol: Zn # 190
    coordinates: [  0.911111111111111,  0.022222222222222,  0.122164729894472 ]
    mass: 65.380000
    reduced_to: 181
  - symbol: Zn # 191
    coordinates: [  0.844444444444444,  0.288888888888889,  0.122164729894472 ]
    mass: 65.380000
    reduced_to: 181
  - symbol: Zn # 192
    coordinates: [  0.944444444444444,  0.388888888888889,  0.122164729894472 ]
    mass: 65.380000
    reduced_to: 181
  - symbol: Zn # 193
    coordinates: [  0.044444444444444,  0.488888888888889,  0.122164729894472 ]
    mass: 65.380000
    reduced_to: 181
  - symbol: Zn # 194
    coordinates: [  0.144444444444444,  0.588888888888889,  0.122164729894472 ]
    mass: 65.380000
    reduced_to: 181
  - symbol: Zn # 195
    coordinates: [  0.244444444444444,  0.688888888888889,  0.122164729894472 ]
    mass: 65.380000
    reduced_to: 181
  - symbol: Zn # 196