phonopy:
  version: "2.21.0"
  frequency_unit_conversion_factor: 15.633302
  symmetry_tolerance: 1.00000e-04

space_group:
  type: "C222_1"
  number: 20
  Hall_symbol: "C 2c 2"

primitive_matrix:
- [  0.500000000000000,  0.500000000000000,  0.000000000000000 ]
- [ -0.500000000000000,  0.500000000000000,  0.000000000000000 ]
- [  0.000000000000000,  0.000000000000000,  1.000000000000000 ]

supercell_matrix:
- [   3,   0,   0 ]
- [   0,   2,   0 ]
- [   0,   0,   2 ]

primitive_cell:
  lattice:
  - [     4.508357753041659,    -7.101244935240573,    -0.000000000000000 ] # a
  - [     4.508357753041659,     7.101244935240573,     0.000000000000001 ] # b
  - [     0.000000000000000,     0.000000000000000,    11.738350961089346 ] # c
  points:
  - symbol: Na # 1
    coordinates: [  0.071319825274995,  0.928680174725005,  0.250000000000000 ]
    mass: 22.989769
  - symbol: Na # 2
    coordinates: [  0.928680174725005,  0.071319825274995,  0.750000000000000 ]
    mass: 22.989769
  - symbol: Na # 3
    coordinates: [  0.599221063369108,  0.599221063369108,  0.500000000000000 ]
    mass: 22.989769
  - symbol: Na # 4
    coordinates: [  0.400778936630892,  0.400778936630892,  0.000000000000000 ]
    mass: 22.989769
  - symbol: Na # 5
    coordinates: [  0.490522391942424,  0.903101512261569,  0.671605003876435 ]
    mass: 22.989769
  - symbol: Na # 6
    coordinates: [  0.509477608057576,  0.096898487738431,  0.171605003876434 ]
    mass: 22.989769
  - symbol: Na # 7
    coordinates: [  0.903101512261569,  0.490522391942424,  0.328394996123566 ]
    mass: 22.989769
  - symbol: Na # 8
    coordinates: [  0.096898487738431,  0.509477608057576,  0.828394996123565 ]
    mass: 22.989769
  - symbol: Na # 9
    coordinates: [  0.407592399312232,  0.162034577084571,  0.457873142350874 ]
    mass: 22.989769
  - symbol: Na # 10
    coordinates: [  0.592407600687768,  0.837965422915429,  0.957873142350874 ]
    mass: 22.989769
  - symbol: Na # 11
    coordinates: [  0.162034577084571,  0.407592399312232,  0.542126857649126 ]
    mass: 22.989769
  - symbol: Na # 12
    coordinates: [  0.837965422915429,  0.592407600687768,  0.042126857649126 ]
    mass: 22.989769
  - symbol: Na # 13
    coordinates: [  0.784762476623171,  0.048944813761924,  0.417001638422454 ]
    mass: 22.989769
  - symbol: Na # 14
    coordinates: [  0.215237523376829,  0.951055186238076,  0.917001638422454 ]
    mass: 22.989769
  - symbol: Na # 15
    coordinates: [  0.048944813761924,  0.784762476623171,  0.582998361577546 ]
    mass: 22.989769
  - symbol: Na # 16
    coordinates: [  0.951055186238076,  0.215237523376829,  0.082998361577546 ]
    mass: 22.989769
  - symbol: Tl # 17
    coordinates: [  0.335503553151202,  0.768734994662938,  0.384938313035844 ]
    mass: 204.383300
  - symbol: Tl # 18
    coordinates: [  0.664496446848798,  0.231265005337062,  0.884938313035844 ]
    mass: 204.383300
  - symbol: Tl # 19
    coordinates: [  0.768734994662938,  0.335503553151201,  0.615061686964156 ]
    mass: 204.383300
  - symbol: Tl # 20
    coordinates: [  0.231265005337062,  0.664496446848798,  0.115061686964156 ]
    mass: 204.383300
  - symbol: Tl # 21
    coordinates: [  0.727842596005375,  0.631368797534053,  0.777067972635443 ]
    mass: 204.383300
  - symbol: Tl # 22
    coordinates: [  0.272157403994625,  0.368631202465947,  0.277067972635450 ]
    mass: 204.383300
  - symbol: Tl # 23
    coordinates: [  0.631368797534053,  0.727842596005375,  0.222932027364557 ]
    mass: 204.383300
  - symbol: Tl # 24
    coordinates: [  0.368631202465947,  0.272157403994625,  0.722932027364557 ]
    mass: 204.383300
  reciprocal_lattice: # without 2pi
  - [     0.110905129403864,    -0.070410189278038,     0.000000000000000 ] # a*
  - [     0.110905129403864,     0.070410189278038,     0.000000000000000 ] # b*
  - [    -0.000000000000000,    -0.000000000000000,     0.085190841823935 ] # c*

unit_cell:
  lattice:
  - [     9.016715506083317,    -0.000000000000000,     0.000000000000001 ] # a
  - [    -0.000000000000001,    14.202489870481147,     0.000000000000001 ] # b
  - [     0.000000000000000,     0.000000000000000,    11.738350961089346 ] # c
  points:
  - symbol: Na # 1
    coordinates: [  0.500000000000000,  0.428680174725005,  0.250000000000000 ]
    mass: 22.989769
    reduced_to: 1
  - symbol: Na # 2
    coordinates: [  0.500000000000000,  0.571319825274995,  0.750000000000000 ]
    mass: 22.989769
    reduced_to: 2
  - symbol: Na # 3
    coordinates: [  0.599221063369108, -0.000000000000000,  0.500000000000000 ]
    mass: 22.989769
    reduced_to: 3
  - symbol: Na # 4
    coordinates: [  0.400778936630892, -0.000000000000000, -0.000000000000000 ]
    mass: 22.989769
    reduced_to: 4
  - symbol: Na # 5
    coordinates: [  0.696811952101996,  0.206289560159573,  0.671605003876435 ]
    mass: 22.989769
    reduced_to: 5
  - symbol: Na # 6
    coordinates: [  0.303188047898004,  0.793710439840427,  0.171605003876434 ]
    mass: 22.989769
    reduced_to: 6
  - symbol: Na # 7
    coordinates: [  0.696811952101996,  0.793710439840427,  0.328394996123566 ]
    mass: 22.989769
    reduced_to: 7
  - symbol: Na # 8
    coordinates: [  0.303188047898004,  0.206289560159573,  0.828394996123565 ]
    mass: 22.989769
    reduced_to: 8
  - symbol: Na # 9
    coordinates: [  0.284813488198402,  0.877221088886170,  0.457873142350874 ]
    mass: 22.989769
    reduced_to: 9
  - symbol: Na # 10
    coordinates: [  0.715186511801598,  0.122778911113830,  0.957873142350874 ]
    mass: 22.989769
    reduced_to: 10
  - symbol: Na # 11
    coordinates: [  0.284813488198402,  0.122778911113830,  0.542126857649126 ]
    mass: 22.989769
    reduced_to: 11
  - symbol: Na # 12
    coordinates: [  0.715186511801598,  0.877221088886170,  0.042126857649126 ]
    mass: 22.989769
    reduced_to: 12
  - symbol: Na # 13
    coordinates: [  0.416853645192548,  0.632091168569376,  0.417001638422454 ]
    mass: 22.989769
    reduced_to: 13
  - symbol: Na # 14
    coordinates: [  0.583146354807452,  0.367908831430624,  0.917001638422454 ]
    mass: 22.989769
    reduced_to: 14
  - symbol: Na # 15
    coordinates: [  0.416853645192548,  0.367908831430624,  0.582998361577546 ]
    mass: 22.989769
    reduced_to: 15
  - symbol: Na # 16
    coordinates: [  0.583146354807452,  0.632091168569376,  0.082998361577546 ]
    mass: 22.989769
    reduced_to: 16
  - symbol: Na # 17
    coordinates: [ -0.000000000000000,  0.928680174725005,  0.250000000000000 ]
    mass: 22.989769
    reduced_to: 1
  - symbol: Na # 18
    coordinates: [ -0.000000000000000,  0.071319825274995,  0.750000000000000 ]
    mass: 22.989769
    reduced_to: 2
  - symbol: Na # 19
    coordinates: [  0.099221063369108,  0.500000000000000,  0.500000000000000 ]
    mass: 22.989769
    reduced_to: 3
  - symbol: Na # 20
    coordinates: [  0.900778936630892,  0.500000000000000, -0.000000000000000 ]
    mass: 22.989769
    reduced_to: 4
  - symbol: Na # 21
    coordinates: [  0.196811952101996,  0.706289560159573,  0.671605003876435 ]
    mass: 22.989769
    reduced_to: 5
  - symbol: Na # 22
    coordinates: [  0.803188047898004,  0.293710439840427,  0.171605003876434 ]
    mass: 22.989769
    reduced_to: 6
  - symbol: Na # 23
    coordinates: [  0.196811952101996,  0.293710439840427,  0.328394996123566 ]
    mass: 22.989769
    reduced_to: 7
  - symbol: Na # 24
    coordinates: [  0.803188047898004,  0.706289560159573,  0.828394996123565 ]
    mass: 22.989769
    reduced_to: 8
  - symbol: Na # 25
    coordinates: [  0.784813488198402,  0.377221088886163,  0.457873142350874 ]
    mass: 22.989769
    reduced_to: 9
  - symbol: Na # 26
    coordinates: [  0.215186511801598,  0.622778911113830,  0.957873142350874 ]
    mass: 22.989769
    reduced_to: 10
  - symbol: Na # 27
    coordinates: [  0.784813488198402,  0.622778911113830,  0.542126857649126 ]
    mass: 22.989769
    reduced_to: 11
  - symbol: Na # 28
    coordinates: [  0.215186511801598,  0.377221088886163,  0.042126857649126 ]
    mass: 22.989769
    reduced_to: 12
  - symbol: Na # 29
    coordinates: [  0.916853645192548,  0.132091168569376,  0.417001638422454 ]
    mass: 22.989769
    reduced_to: 13
  - symbol: Na # 30
    coordinates: [  0.083146354807452,  0.867908831430624,  0.917001638422454 ]
    mass: 22.989769
    reduced_to: 14
  - symbol: Na # 31
    coordinates: [  0.916853645192548,  0.867908831430624,  0.582998361577546 ]
    mass: 22.989769
    reduced_to: 15
  - symbol: Na # 32
    coordinates: [  0.083146354807452,  0.132091168569376,  0.082998361577546 ]
    mass: 22.989769
    reduced_to: 16
  - symbol: Tl # 33
    coordinates: [  0.552119273907070,  0.216615720755868,  0.384938313035844 ]
    mass: 204.383300
    reduced_to: 33
  - symbol: Tl # 34
    coordinates: [  0.447880726092930,  0.783384279244132,  0.884938313035844 ]
    mass: 204.383300
    reduced_to: 34
  - symbol: Tl # 35
    coordinates: [  0.552119273907070,  0.783384279244132,  0.615061686964156 ]
    mass: 204.383300
    reduced_to: 35
  - symbol: Tl # 36
    coordinates: [  0.447880726092930,  0.216615720755868,  0.115061686964156 ]
    mass: 204.383300
    reduced_to: 36
  - symbol: Tl # 37
    coordinates: [  0.679605696769714,  0.951763100764339,  0.777067972635443 ]
    mass: 204.383300
    reduced_to: 37
  - symbol: Tl # 38
    coordinates: [  0.320394303230286,  0.048236899235661,  0.277067972635450 ]
    mass: 204.383300
    reduced_to: 38
  - symbol: Tl # 39
    coordinates: [  0.679605696769714,  0.048236899235661,  0.222932027364557 ]
    mass: 204.383300
    reduced_to: 39
  - symbol: Tl # 40
    coordinates: [  0.320394303230286,  0.951763100764339,  0.722932027364557 ]
    mass: 204.383300
    reduced_to: 40
  - symbol: Tl # 41
    coordinates: [  0.052119273907070,  0.716615720755868,  0.384938313035844 ]
    mass: 204.383300
    reduced_to: 33
  - symbol: Tl # 42
    coordinates: [  0.947880726092930,  0.283384279244139,  0.884938313035844 ]
    mass: 204.383300
    reduced_to: 34
  - symbol: Tl # 43
    coordinates: [  0.052119273907070,  0.283384279244139,  0.615061686964156 ]
    mass: 204.383300
    reduced_to: 35
  - symbol: Tl # 44
    coordinates: [  0.947880726092930,  0.716615720755868,  0.115061686964156 ]
    mass: 204.383300
    reduced_to: 36
  - symbol: Tl # 45
    coordinates: [  0.179605696769714,  0.451763100764339,  0.777067972635443 ]
    mass: 204.383300
    reduced_to: 37
  - symbol: Tl # 46
    coordinates: [  0.820394303230286,  0.548236899235661,  0.277067972635450 ]
    mass: 204.383300
    reduced_to: 38
  - symbol: Tl # 47
    coordinates: [  0.179605696769714,  0.548236899235661,  0.222932027364557 ]
    mass: 204.383300
    reduced_to: 39
  - symbol: Tl # 48
    coordinates: [  0.820394303230286,  0.451763100764339,  0.722932027364557 ]
    mass: 204.383300
    reduced_to: 40

supercell:
  lattice:
  - [    27.050146518249953,     0.000000000000000,     0.000000000000002 ] # a
  - [    -0.000000000000002,    28.404979740962293,     0.000000000000002 ] # b
  - [     0.000000000000000,     0.000000000000000,    23.476701922178691 ] # c
  points:
  - symbol: Na # 1
    coordinates: [  0.166666666666667,  0.214340087362502,  0.125000000000000 ]
    mass: 22.989769
    reduced_to: 1
  - symbol: Na # 2
    coordinates: [  0.500000000000000,  0.214340087362502,  0.125000000000000 ]
    mass: 22.989769
    reduced_to: 1
  - symbol: Na # 3
    coordinates: [  0.833333333333333,  0.214340087362502,  0.125000000000000 ]
    mass: 22.989769
    reduced_to: 1
  - symbol: Na # 4
    coordinates: [  0.166666666666667,  0.714340087362502,  0.125000000000000 ]
    mass: 22.989769
    reduced_to: 1
  - symbol: Na # 5
    coordinates: [  0.500000000000000,  0.714340087362502,  0.125000000000000 ]
    mass: 22.989769
    reduced_to: 1
  - symbol: Na # 6
    coordinates: [  0.833333333333333,  0.714340087362502,  0.125000000000000 ]
    mass: 22.989769
    reduced_to: 1
  - symbol: Na # 7
    coordinates: [  0.166666666666667,  0.214340087362502,  0.625000000000000 ]
    mass: 22.989769
    reduced_to: 1
  - symbol: Na # 8
    coordinates: [  0.500000000000000,  0.214340087362502,  0.625000000000000 ]
    mass: 22.989769
    reduced_to: 1
  - symbol: Na # 9
    coordinates: [  0.833333333333333,  0.214340087362502,  0.625000000000000 ]
    mass: 22.989769
    reduced_to: 1
  - symbol: Na # 10
    coordinates: [  0.166666666666667,  0.714340087362502,  0.625000000000000 ]
    mass: 22.989769
    reduced_to: 1
  - symbol: Na # 11
    coordinates: [  0.500000000000000,  0.714340087362502,  0.625000000000000 ]
    mass: 22.989769
    reduced_to: 1
  - symbol: Na # 12
    coordinates: [  0.833333333333333,  0.714340087362502,  0.625000000000000 ]
    mass: 22.989769
    reduced_to: 1
  - symbol: Na # 13
    coordinates: [  0.166666666666667,  0.285659912637498,  0.375000000000000 ]
    mass: 22.989769
    reduced_to: 13
  - symbol: Na # 14
    coordinates: [  0.500000000000000,  0.285659912637498,  0.375000000000000 ]
    mass: 22.989769
    reduced_to: 13
  - symbol: Na # 15
    coordinates: [  0.833333333333333,  0.285659912637498,  0.375000000000000 ]
    mass: 22.989769
    reduced_to: 13
  - symbol: Na # 16
    coordinates: [  0.166666666666667,  0.785659912637498,  0.375000000000000 ]
    mass: 22.989769
    reduced_to: 13
  - symbol: Na # 17
    coordinates: [  0.500000000000000,  0.785659912637498,  0.375000000000000 ]
    mass: 22.989769
    reduced_to: 13
  - symbol: Na # 18
    coordinates: [  0.833333333333333,  0.785659912637498,  0.375000000000000 ]
    mass: 22.989769
    reduced_to: 13
  - symbol: Na # 19
    coordinates: [  0.166666666666667,  0.285659912637498,  0.875000000000000 ]
    mass: 22.989769
    reduced_to: 13
  - symbol: Na # 20
    coordinates: [  0.500000000000000,  0.285659912637498,  0.875000000000000 ]
    mass: 22.989769
    reduced_to: 13
  - symbol: Na # 21
    coordinates: [  0.833333333333333,  0.285659912637498,  0.875000000000000 ]
    mass: 22.989769
    reduced_to: 13
  - symbol: Na # 22
    coordinates: [  0.166666666666667,  0.785659912637498,  0.875000000000000 ]
    mass: 22.989769
    reduced_to: 13
  - symbol: Na # 23
    coordinates: [  0.500000000000000,  0.785659912637498,  0.875000000000000 ]
    mass: 22.989769
    reduced_to: 13
  - symbol: Na # 24
    coordinates: [  0.833333333333333,  0.785659912637498,  0.875000000000000 ]
    mass: 22.989769
    reduced_to: 13
  - symbol: Na # 25
    coordinates: [  0.199740354456369,  0.000000000000000,  0.250000000000000 ]
    mass: 22.989769
    reduced_to: 25
  - symbol: Na # 26
    coordinates: [  0.533073687789703,  0.000000000000000,  0.250000000000000 ]
    mass: 22.989769
    reduced_to: 25
  - symbol: Na # 27
    coordinates: [  0.866407021123036,  0.000000000000000,  0.250000000000000 ]
    mass: 22.989769
    reduced_to: 25
  - symbol: Na # 28
    coordinates: [  0.199740354456369,  0.500000000000000,  0.250000000000000 ]
    mass: 22.989769
    reduced_to: 25
  - symbol: Na # 29
    coordinates: [  0.533073687789703,  0.500000000000000,  0.250000000000000 ]
    mass: 22.989769
    reduced_to: 25
  - symbol: Na # 30
    coordinates: [  0.866407021123036,  0.500000000000000,  0.250000000000000 ]
    mass: 22.989769
    reduced_to: 25
  - symbol: Na # 31
    coordinates: [  0.199740354456369,  0.000000000000000,  0.750000000000000 ]
    mass: 22.989769
    reduced_to: 25
  - symbol: Na # 32
    coordinates: [  0.533073687789703,  0.000000000000000,  0.750000000000000 ]
    mass: 22.989769
    reduced_to: 25
  - symbol: Na # 33
    coordinates: [  0.866407021123036,  0.000000000000000,  0.750000000000000 ]
    mass: 22.989769
    reduced_to: 25
  - symbol: Na # 34
    coordinates: [  0.199740354456369,  0.500000000000000,  0.750000000000000 ]
    mass: 22.989769
    reduced_to: 25
  - symbol: Na # 35
    coordinates: [  0.533073687789703,  0.500000000000000,  0.750000000000000 ]
    mass: 22.989769
    reduced_to: 25
  - symbol: Na # 36
    coordinates: [  0.866407021123036,  0.500000000000000,  0.750000000000000 ]
    mass: 22.989769
    reduced_to: 25
  - symbol: Na # 37
    coordinates: [  0.133592978876964,  0.000000000000000,  0.000000000000000 ]
    mass: 22.989769
    reduced_to: 37
  - symbol: Na # 38
    coordinates: [  0.466926312210297,  0.000000000000000,  0.000000000000000 ]
    mass: 22.989769
    reduced_to: 37
  - symbol: Na # 39
    coordinates: [  0.800259645543631,  0.000000000000000,  0.000000000000000 ]
    mass: 22.989769
    reduced_to: 37
  - symbol: Na # 40
    coordinates: [  0.133592978876964,  0.500000000000000,  0.000000000000000 ]
    mass: 22.989769
    reduced_to: 37
  - symbol: Na # 41
    coordinates: [  0.466926312210297,  0.500000000000000,  0.000000000000000 ]
    mass: 22.989769
    reduced_to: 37
  - symbol: Na # 42
    coordinates: [  0.800259645543631,  0.500000000000000,  0.000000000000000 ]
    mass: 22.989769
    reduced_to: 37
  - symbol: Na # 43
    coordinates: [  0.133592978876964,  0.000000000000000,  0.500000000000000 ]
    mass: 22.989769
    reduced_to: 37
  - symbol: Na # 44
    coordinates: [  0.466926312210297,  0.000000000000000,  0.500000000000000 ]
    mass: 22.989769
    reduced_to: 37
  - symbol: Na # 45
    coordinates: [  0.800259645543631,  0.000000000000000,  0.500000000000000 ]
    mass: 22.989769
    reduced_to: 37
  - symbol: Na # 46
    coordinates: [  0.133592978876964,  0.500000000000000,  0.500000000000000 ]
    mass: 22.989769
    reduced_to: 37
  - symbol: Na # 47
    coordinates: [  0.466926312210297,  0.500000000000000,  0.500000000000000 ]
    mass: 22.989769
    reduced_to: 37
  - symbol: Na # 48
    coordinates: [  0.800259645543631,  0.500000000000000,  0.500000000000000 ]
    mass: 22.989769
    reduced_to: 37
  - symbol: Na # 49
    coordinates: [  0.232270650700665,  0.103144780079786,  0.335802501938217 ]
    mass: 22.989769
    reduced_to: 49
  - symbol: Na # 50
    coordinates: [  0.565603984033999,  0.103144780079786,  0.335802501938217 ]
    mass: 22.989769
    reduced_to: 49
  - symbol: Na # 51
    coordinates: [  0.898937317367332,  0.103144780079786,  0.335802501938217 ]
    mass: 22.989769
    reduced_to: 49
  - symbol: Na # 52
    coordinates: [  0.232270650700665,  0.603144780079786,  0.335802501938217 ]
    mass: 22.989769
    reduced_to: 49
  - symbol: Na # 53
    coordinates: [  0.565603984033999,  0.603144780079786,  0.335802501938217 ]
    mass: 22.989769
    reduced_to: 49
  - symbol: Na # 54
    coordinates: [  0.898937317367332,  0.603144780079786,  0.335802501938217 ]
    mass: 22.989769
    reduced_to: 49
  - symbol: Na # 55
    coordinates: [  0.232270650700665,  0.103144780079786,  0.835802501938217 ]
    mass: 22.989769
    reduced_to: 49
  - symbol: Na # 56
    coordinates: [  0.565603984033999,  0.103144780079786,  0.835802501938217 ]
    mass: 22.989769
    reduced_to: 49
  - symbol: Na # 57
    coordinates: [  0.898937317367332,  0.103144780079786,  0.835802501938217 ]
    mass: 22.989769
    reduced_to: 49
  - symbol: Na # 58
    coordinates: [  0.232270650700665,  0.603144780079786,  0.835802501938217 ]
    mass: 22.989769
    reduced_to: 49
  - symbol: Na # 59
    coordinates: [  0.565603984033999,  0.603144780079786,  0.835802501938217 ]
    mass: 22.989769
    reduced_to: 49
  - symbol: Na # 60
    coordinates: [  0.898937317367332,  0.603144780079786,  0.835802501938217 ]
    mass: 22.989769
    reduced_to: 49
  - symbol: Na # 61
    coordinates: [  0.101062682632668,  0.396855219920214,  0.085802501938217 ]
    mass: 22.989769
    reduced_to: 61
  - symbol: Na # 62
    coordinates: [  0.434396015966001,  0.396855219920214,  0.085802501938217 ]
    mass: 22.989769
    reduced_to: 61
  - symbol: Na # 63
    coordinates: [  0.767729349299335,  0.396855219920214,  0.085802501938217 ]
    mass: 22.989769
    reduced_to: 61
  - symbol: Na # 64
    coordinates: [  0.101062682632668,  0.896855219920214,  0.085802501938217 ]
    mass: 22.989769
    reduced_to: 61
  - symbol: Na # 65
    coordinates: [  0.434396015966001,  0.896855219920214,  0.085802501938217 ]
    mass: 22.989769
    reduced_to: 61
  - symbol: Na # 66
    coordinates: [  0.767729349299335,  0.896855219920214,  0.085802501938217 ]
    mass: 22.989769
    reduced_to: 61
  - symbol: Na # 67
    coordinates: [  0.101062682632668,  0.396855219920214,  0.585802501938217 ]
    mass: 22.989769
    reduced_to: 61
  - symbol: Na # 68
    coordinates: [  0.434396015966001,  0.396855219920214,  0.585802501938217 ]
    mass: 22.989769
    reduced_to: 61
  - symbol: Na # 69
    coordinates: [  0.767729349299335,  0.396855219920214,  0.585802501938217 ]
    mass: 22.989769
    reduced_to: 61
  - symbol: Na # 70
    coordinates: [  0.101062682632668,  0.896855219920214,  0.585802501938217 ]
    mass: 22.989769
    reduced_to: 61
  - symbol: Na # 71
    coordinates: [  0.434396015966001,  0.896855219920214,  0.585802501938217 ]
    mass: 22.989769
    reduced_to: 61
  - symbol: Na # 72
    coordinates: [  0.767729349299335,  0.896855219920214,  0.585802501938217 ]
    mass: 22.989769
    reduced_to: 61
  - symbol: Na # 73
    coordinates: [  0.232270650700665,  0.396855219920214,  0.164197498061783 ]
    mass: 22.989769
    reduced_to: 73
  - symbol: Na # 74
    coordinates: [  0.565603984033999,  0.396855219920214,  0.164197498061783 ]
    mass: 22.989769
    reduced_to: 73
  - symbol: Na # 75
    coordinates: [  0.898937317367332,  0.396855219920214,  0.164197498061783 ]
    mass: 22.989769
    reduced_to: 73
  - symbol: Na # 76
    coordinates: [  0.232270650700665,  0.896855219920214,  0.164197498061783 ]
    mass: 22.989769
    reduced_to: 73
  - symbol: Na # 77
    coordinates: [  0.565603984033999,  0.896855219920214,  0.164197498061783 ]
    mass: 22.989769
    reduced_to: 73
  - symbol: Na # 78
    coordinates: [  0.898937317367332,  0.896855219920214,  0.164197498061783 ]
    mass: 22.989769
    reduced_to: 73
  - symbol: Na # 79
    coordinates: [  0.232270650700665,  0.396855219920214,  0.664197498061783 ]
    mass: 22.989769
    reduced_to: 73
  - symbol: Na # 80
    coordinates: [  0.565603984033999,  0.396855219920214,  0.664197498061783 ]
    mass: 22.989769
    reduced_to: 73
  - symbol: Na # 81
    coordinates: [  0.898937317367332,  0.396855219920214,  0.664197498061783 ]
    mass: 22.989769
    reduced_to: 73
  - symbol: Na # 82
    coordinates: [  0.232270650700665,  0.896855219920214,  0.664197498061783 ]
    mass: 22.989769
    reduced_to: 73
  - symbol: Na # 83
    coordinates: [  0.565603984033999,  0.896855219920214,  0.664197498061783 ]
    mass: 22.989769
    reduced_to: 73
  - symbol: Na # 84
    coordinates: [  0.898937317367332,  0.896855219920214,  0.664197498061783 ]
    mass: 22.989769
    reduced_to: 73
  - symbol: Na # 85
    coordinates: [  0.101062682632668,  0.103144780079786,  0.414197498061783 ]
    mass: 22.989769
    reduced_to: 85
  - symbol: Na # 86
    coordinates: [  0.434396015966001,  0.103144780079786,  0.414197498061783 ]
    mass: 22.989769
    reduced_to: 85
  - symbol: Na # 87
    coordinates: [  0.767729349299335,  0.103144780079786,  0.414197498061783 ]
    mass: 22.989769
    reduced_to: 85
  - symbol: Na # 88
    coordinates: [  0.101062682632668,  0.603144780079786,  0.414197498061783 ]
    mass: 22.989769
    reduced_to: 85
  - symbol: Na # 89
    coordinates: [  0.434396015966001,  0.603144780079786,  0.414197498061783 ]
    mass: 22.989769
    reduced_to: 85
  - symbol: Na # 90
    coordinates: [  0.767729349299335,  0.603144780079786,  0.414197498061783 ]
    mass: 22.989769
    reduced_to: 85
  - symbol: Na # 91
    coordinates: [  0.101062682632668,  0.103144780079786,  0.914197498061783 ]
    mass: 22.989769
    reduced_to: 85
  - symbol: Na # 92
    coordinates: [  0.434396015966001,  0.103144780079786,  0.914197498061783 ]
    mass: 22.989769
    reduced_to: 85
  - symbol: Na # 93
    coordinates: [  0.767729349299335,  0.103144780079786,  0.914197498061783 ]
    mass: 22.989769
    reduced_to: 85
  - symbol: Na # 94
    coordinates: [  0.101062682632668,  0.603144780079786,  0.914197498061783 ]
    mass: 22.989769
    reduced_to: 85
  - symbol: Na # 95
    coordinates: [  0.434396015966001,  0.603144780079786,  0.914197498061783 ]
    mass: 22.989769
    reduced_to: 85
  - symbol: Na # 96
    coordinates: [  0.767729349299335,  0.603144780079786,  0.914197498061783 ]
    mass: 22.989769
    reduced_to: 85
  - symbol: Na # 97
    coordinates: [  0.094937829399467,  0.438610544443085,  0.228936571175437 ]
    mass: 22.989769
    reduced_to: 97
  - symbol: Na # 98
    coordinates: [  0.428271162732801,  0.438610544443085,  0.228936571175437 ]
    mass: 22.989769
    reduced_to: 97
  - symbol: Na # 99
    coordinates: [  0.761604496066134,  0.438610544443085,  0.228936571175437 ]
    mass: 22.989769
    reduced_to: 97
  - symbol: Na # 100
    coordinates: [  0.094937829399467,  0.938610544443085,  0.228936571175437 ]
    mass: 22.989769
    reduced_to: 97
  - symbol: Na # 101
    coordinates: [  0.428271162732801,  0.938610544443085,  0.228936571175437 ]
    mass: 22.989769
    reduced_to: 97
  - symbol: Na # 102
    coordinates: [  0.761604496066134,  0.938610544443085,  0.228936571175437 ]
    mass: 22.989769
    reduced_to: 97
  - symbol: Na # 103
    coordinates: [  0.094937829399467,  0.438610544443085,  0.728936571175437 ]
    mass: 22.989769
    reduced_to: 97
  - symbol: Na # 104
    coordinates: [  0.428271162732801,  0.438610544443085,  0.728936571175437 ]
    mass: 22.989769
    reduced_to: 97
  - symbol: Na # 105
    coordinates: [  0.761604496066134,  0.438610544443085,  0.728936571175437 ]
    mass: 22.989769
    reduced_to: 97
  - symbol: Na # 106
    coordinates: [  0.094937829399467,  0.938610544443085,  0.728936571175437 ]
    mass: 22.989769
    reduced_to: 97
  - symbol: Na # 107
    coordinates: [  0.428271162732801,  0.938610544443085,  0.728936571175437 ]
    mass: 22.989769
    reduced_to: 97
  - symbol: Na # 108
    coordinates: [  0.761604496066134,  0.938610544443085,  0.728936571175437 ]
    mass: 22.989769
    reduced_to: 97
  - symbol: Na # 109
    coordinates: [  0.238395503933866,  0.061389455556915,  0.478936571175437 ]
    mass: 22.989769
    reduced_to: 109
  - symbol: Na # 110
    coordinates: [  0.571728837267199,  0.061389455556915,  0.478936571175437 ]
    mass: 22.989769
    reduced_to: 109
  - symbol: Na # 111
    coordinates: [  0.905062170600533,  0.061389455556915,  0.478936571175437 ]
    mass: 22.989769
    reduced_to: 109
  - symbol: Na # 112
    coordinates: [  0.238395503933866,  0.561389455556915,  0.478936571175437 ]
    mass: 22.989769
    reduced_to: 109
  - symbol: Na # 113
    coordinates: [  0.571728837267199,  0.561389455556915,  0.478936571175437 ]
    mass: 22.989769
    reduced_to: 109
  - symbol: Na # 114
    coordinates: [  0.905062170600533,  0.561389455556915,  0.478936571175437 ]
    mass: 22.989769
    reduced_to: 109
  - symbol: Na # 115
    coordinates: [  0.238395503933866,  0.061389455556915,  0.978936571175437 ]
    mass: 22.989769
    reduced_to: 109
  - symbol: Na # 116
    coordinates: [  0.571728837267199,  0.061389455556915,  0.978936571175437 ]
    mass: 22.989769
    reduced_to: 109
  - symbol: Na # 117
    coordinates: [  0.905062170600533,  0.061389455556915,  0.978936571175437 ]
    mass: 22.989769
    reduced_to: 109
  - symbol: Na # 118
    coordinates: [  0.238395503933866,  0.561389455556915,  0.978936571175437 ]
    mass: 22.989769
    reduced_to: 109
  - symbol: Na # 119
    coordinates: [  0.571728837267199,  0.561389455556915,  0.978936571175437 ]
    mass: 22.989769
    reduced_to: 109
  - symbol: Na # 120
    coordinates: [  0.905062170600533,  0.561389455556915,  0.978936571175437 ]
    mass: 22.989769
    reduced_to: 109
  - symbol: Na # 121
    coordinates: [  0.094937829399467,  0.061389455556915,  0.271063428824563 ]
    mass: 22.989769
    reduced_to: 121
  - symbol: Na # 122
    coordinates: [  0.428271162732801,  0.061389455556915,  0.271063428824563 ]
    mass: 22.989769
    reduced_to: 121
  - symbol: Na # 123
    coordinates: [  0.761604496066134,  0.061389455556915,  0.271063428824563 ]
    mass: 22.989769
    reduced_to: 121
  - symbol: Na # 124
    coordinates: [  0.094937829399467,  0.561389455556915,  0.271063428824563 ]
    mass: 22.989769
    reduced_to: 121
  - symbol: Na # 125
    coordinates: [  0.428271162732801,  0.561389455556915,  0.271063428824563 ]
    mass: 22.989769
    reduced_to: 121
  - symbol: Na # 126
    coordinates: [  0.761604496066134,  0.561389455556915,  0.271063428824563 ]
    mass: 22.989769
    reduced_to: 121
  - symbol: Na # 127
    coordinates: [  0.094937829399467,  0.061389455556915,  0.771063428824563 ]
    mass: 22.989769
    reduced_to: 121
  - symbol: Na # 128
    coordinates: [  0.428271162732801,  0.061389455556915,  0.771063428824563 ]
    mass: 22.989769
    reduced_to: 121
  - symbol: Na # 129
    coordinates: [  0.761604496066134,  0.061389455556915,  0.771063428824563 ]
    mass: 22.989769
    reduced_to: 121
  - symbol: Na # 130
    coordinates: [  0.094937829399467,  0.561389455556915,  0.771063428824563 ]
    mass: 22.989769
    reduced_to: 121
  - symbol: Na # 131
    coordinates: [  0.428271162732801,  0.561389455556915,  0.771063428824563 ]
    mass: 22.989769
    reduced_to: 121
  - symbol: Na # 132
    coordinates: [  0.761604496066134,  0.561389455556915,  0.771063428824563 ]
    mass: 22.989769
    reduced_to: 121
  - symbol: Na # 133
    coordinates: [  0.238395503933866,  0.438610544443085,  0.021063428824563 ]
    mass: 22.989769
    reduced_to: 133
  - symbol: Na # 134
    coordinates: [  0.571728837267199,  0.438610544443085,  0.021063428824563 ]
    mass: 22.989769
    reduced_to: 133
  - symbol: Na # 135
    coordinates: [  0.905062170600533,  0.438610544443085,  0.021063428824563 ]
    mass: 22.989769
    reduced_to: 133
  - symbol: Na # 136