phonopy:
  version: "2.27.0"
  frequency_unit_conversion_factor: 15.633302
  symmetry_tolerance: 1.00000e-03

space_group:
  type: "R3m"
  number: 160
  Hall_symbol: "R 3 -2\""

primitive_matrix:
- [  0.666666666666667, -0.333333333333333, -0.333333333333333 ]
- [  0.333333333333333,  0.333333333333333, -0.666666666666667 ]
- [  0.333333333333333,  0.333333333333333,  0.333333333333333 ]

supercell_matrix:
- [   5,  -3,   0 ]
- [   5,   3,   0 ]
- [   0,   0,   2 ]

primitive_cell:
  lattice:
  - [     2.079141676984550,    -1.200393006890409,     3.896628648563447 ] # a
  - [     0.000000000000000,     2.400786013780804,     3.896628648563442 ] # b
  - [    -2.079141676984550,    -1.200393006890411,     3.896628648563446 ] # c
  points:
  - symbol: Ge # 1
    coordinates: [  0.990337616361655,  0.990337616361660,  0.990337616361650 ]
    mass: 72.640000
  - symbol: Te # 2
    coordinates: [  0.530662383638349,  0.530662383638348,  0.530662383638344 ]
    mass: 127.600000
  reciprocal_lattice: # without 2pi
  - [     0.240483852319851,    -0.138843416872624,     0.085544033932056 ] # a*
  - [    -0.000000000000000,     0.277686833745247,     0.085544033932057 ] # b*
  - [    -0.240483852319851,    -0.138843416872624,     0.085544033932056 ] # c*

unit_cell:
  lattice:
  - [     2.079141676984551,    -3.601179020671214,     0.000000000000005 ] # a
  - [     2.079141676984551,     3.601179020671215,    -0.000000000000004 ] # b
  - [    -0.000000000000000,    -0.000000000000015,    11.689885945690335 ] # c
  points:
  - symbol: Ge # 1
    coordinates: [  0.666666666666666,  0.333333333333338,  0.323670949694988 ]
    mass: 72.640000
    reduced_to: 1
  - symbol: Ge # 2
    coordinates: [  0.333333333333333,  0.666666666666671,  0.657004283028321 ]
    mass: 72.640000
    reduced_to: 1
  - symbol: Ge # 3
    coordinates: [  0.000000000000000,  0.000000000000005,  0.990337616361654 ]
    mass: 72.640000
    reduced_to: 1
  - symbol: Te # 4
    coordinates: [  0.333333333333335,  0.666666666666670,  0.197329050305013 ]
    mass: 127.600000
    reduced_to: 4
  - symbol: Te # 5
    coordinates: [  0.000000000000002,  0.000000000000003,  0.530662383638347 ]
    mass: 127.600000
    reduced_to: 4
  - symbol: Te # 6
    coordinates: [  0.666666666666668,  0.333333333333336,  0.863995716971680 ]
    mass: 127.600000
    reduced_to: 4

supercell:
  lattice:
  - [    20.791416769845505,     0.000000000000002,     0.000000000000002 ] # a
  - [    -0.000000000000000,    21.607074124027285,    -0.000000000000027 ] # b
  - [    -0.000000000000000,    -0.000000000000031,    23.379771891380670 ] # c
  points:
  - symbol: Ge # 1
    coordinates: [  0.100000000000000,  0.944444444444445,  0.161835474847494 ]
    mass: 72.640000
    reduced_to: 1
  - symbol: Ge # 2
    coordinates: [  0.200000000000000,  0.777777777777779,  0.161835474847494 ]
    mass: 72.640000
    reduced_to: 1
  - symbol: Ge # 3
    coordinates: [  0.300000000000000,  0.611111111111112,  0.161835474847494 ]
    mass: 72.640000
    reduced_to: 1
  - symbol: Ge # 4
    coordinates: [  0.400000000000001,  0.444444444444445,  0.161835474847494 ]
    mass: 72.640000
    reduced_to: 1
  - symbol: Ge # 5
    coordinates: [  0.500000000000000,  0.277777777777779,  0.161835474847494 ]
    mass: 72.640000
    reduced_to: 1
  - symbol: Ge # 6
    coordinates: [  0.600000000000000,  0.111111111111112,  0.161835474847494 ]
    mass: 72.640000
    reduced_to: 1
  - symbol: Ge # 7
    coordinates: [  0.700000000000000,  0.944444444444445,  0.161835474847494 ]
    mass: 72.640000
    reduced_to: 1
  - symbol: Ge # 8
    coordinates: [  0.800000000000000,  0.777777777777779,  0.161835474847494 ]
    mass: 72.640000
    reduced_to: 1
  - symbol: Ge # 9
    coordinates: [  0.200000000000000,  0.111111111111112,  0.161835474847494 ]
    mass: 72.640000
    reduced_to: 1
  - symbol: Ge # 10
    coordinates: [  0.300000000000000,  0.944444444444445,  0.161835474847494 ]
    mass: 72.640000
    reduced_to: 1
  - symbol: Ge # 11
    coordinates: [  0.400000000000000,  0.777777777777779,  0.161835474847494 ]
    mass: 72.640000
    reduced_to: 1
  - symbol: Ge # 12
    coordinates: [  0.500000000000001,  0.611111111111112,  0.161835474847494 ]
    mass: 72.640000
    reduced_to: 1
  - symbol: Ge # 13
    coordinates: [  0.600000000000000,  0.444444444444445,  0.161835474847494 ]
    mass: 72.640000
    reduced_to: 1
  - symbol: Ge # 14
    coordinates: [  0.700000000000001,  0.277777777777779,  0.161835474847494 ]
    mass: 72.640000
    reduced_to: 1
  - symbol: Ge # 15
    coordinates: [  0.800000000000000,  0.111111111111112,  0.161835474847494 ]
    mass: 72.640000
    reduced_to: 1
  - symbol: Ge # 16
    coordinates: [  0.900000000000000,  0.944444444444445,  0.161835474847494 ]
    mass: 72.640000
    reduced_to: 1
  - symbol: Ge # 17
    coordinates: [  0.300000000000000,  0.277777777777779,  0.161835474847494 ]
    mass: 72.640000
    reduced_to: 1
  - symbol: Ge # 18
    coordinates: [  0.400000000000000,  0.111111111111112,  0.161835474847494 ]
    mass: 72.640000
    reduced_to: 1
  - symbol: Ge # 19
    coordinates: [  0.500000000000000,  0.944444444444445,  0.161835474847494 ]
    mass: 72.640000
    reduced_to: 1
  - symbol: Ge # 20
    coordinates: [  0.600000000000001,  0.777777777777779,  0.161835474847494 ]
    mass: 72.640000
    reduced_to: 1
  - symbol: Ge # 21
    coordinates: [  0.700000000000000,  0.611111111111112,  0.161835474847494 ]
    mass: 72.640000
    reduced_to: 1
  - symbol: Ge # 22
    coordinates: [  0.800000000000000,  0.444444444444445,  0.161835474847494 ]
    mass: 72.640000
    reduced_to: 1
  - symbol: Ge # 23
    coordinates: [  0.900000000000000,  0.277777777777779,  0.161835474847494 ]
    mass: 72.640000
    reduced_to: 1
  - symbol: Ge # 24
    coordinates: [  0.000000000000000,  0.111111111111112,  0.161835474847494 ]
    mass: 72.640000
    reduced_to: 1
  - symbol: Ge # 25
    coordinates: [  0.900000000000000,  0.611111111111112,  0.161835474847494 ]
    mass: 72.640000
    reduced_to: 1
  - symbol: Ge # 26
    coordinates: [  0.000000000000000,  0.444444444444445,  0.161835474847494 ]
    mass: 72.640000
    reduced_to: 1
  - symbol: Ge # 27
    coordinates: [  0.100000000000000,  0.277777777777779,  0.161835474847494 ]
    mass: 72.640000
    reduced_to: 1
  - symbol: Ge # 28
    coordinates: [  0.000000000000000,  0.777777777777779,  0.161835474847494 ]
    mass: 72.640000
    reduced_to: 1
  - symbol: Ge # 29
    coordinates: [  0.100000000000001,  0.611111111111112,  0.161835474847494 ]
    mass: 72.640000
    reduced_to: 1
  - symbol: Ge # 30
    coordinates: [  0.200000000000000,  0.444444444444445,  0.161835474847494 ]
    mass: 72.640000
    reduced_to: 1
  - symbol: Ge # 31
    coordinates: [  0.100000000000000,  0.944444444444445,  0.661835474847494 ]
    mass: 72.640000
    reduced_to: 1
  - symbol: Ge # 32
    coordinates: [  0.200000000000000,  0.777777777777779,  0.661835474847494 ]
    mass: 72.640000
    reduced_to: 1
  - symbol: Ge # 33
    coordinates: [  0.300000000000000,  0.611111111111112,  0.661835474847494 ]
    mass: 72.640000
    reduced_to: 1
  - symbol: Ge # 34
    coordinates: [  0.400000000000001,  0.444444444444445,  0.661835474847494 ]
    mass: 72.640000
    reduced_to: 1
  - symbol: Ge # 35
    coordinates: [  0.500000000000000,  0.277777777777779,  0.661835474847494 ]
    mass: 72.640000
    reduced_to: 1
  - symbol: Ge # 36
    coordinates: [  0.600000000000000,  0.111111111111112,  0.661835474847494 ]
    mass: 72.640000
    reduced_to: 1
  - symbol: Ge # 37
    coordinates: [  0.700000000000000,  0.944444444444445,  0.661835474847494 ]
    mass: 72.640000
    reduced_to: 1
  - symbol: Ge # 38
    coordinates: [  0.800000000000000,  0.777777777777779,  0.661835474847494 ]
    mass: 72.640000
    reduced_to: 1
  - symbol: Ge # 39
    coordinates: [  0.200000000000000,  0.111111111111112,  0.661835474847494 ]
    mass: 72.640000
    reduced_to: 1
  - symbol: Ge # 40
    coordinates: [  0.300000000000000,  0.944444444444445,  0.661835474847494 ]
    mass: 72.640000
    reduced_to: 1
  - symbol: Ge # 41
    coordinates: [  0.400000000000000,  0.777777777777779,  0.661835474847494 ]
    mass: 72.640000
    reduced_to: 1
  - symbol: Ge # 42
    coordinates: [  0.500000000000001,  0.611111111111112,  0.661835474847494 ]
    mass: 72.640000
    reduced_to: 1
  - symbol: Ge # 43
    coordinates: [  0.600000000000000,  0.444444444444445,  0.661835474847494 ]
    mass: 72.640000
    reduced_to: 1
  - symbol: Ge # 44
    coordinates: [  0.700000000000001,  0.277777777777779,  0.661835474847494 ]
    mass: 72.640000
    reduced_to: 1
  - symbol: Ge # 45
    coordinates: [  0.800000000000000,  0.111111111111112,  0.661835474847494 ]
    mass: 72.640000
    reduced_to: 1
  - symbol: Ge # 46
    coordinates: [  0.900000000000000,  0.944444444444445,  0.661835474847494 ]
    mass: 72.640000
    reduced_to: 1
  - symbol: Ge # 47
    coordinates: [  0.300000000000000,  0.277777777777779,  0.661835474847494 ]
    mass: 72.640000
    reduced_to: 1
  - symbol: Ge # 48
    coordinates: [  0.400000000000000,  0.111111111111112,  0.661835474847494 ]
    mass: 72.640000
    reduced_to: 1
  - symbol: Ge # 49
    coordinates: [  0.500000000000000,  0.944444444444445,  0.661835474847494 ]
    mass: 72.640000
    reduced_to: 1
  - symbol: Ge # 50
    coordinates: [  0.600000000000001,  0.777777777777779,  0.661835474847494 ]
    mass: 72.640000
    reduced_to: 1
  - symbol: Ge # 51
    coordinates: [  0.700000000000000,  0.611111111111112,  0.661835474847494 ]
    mass: 72.640000
    reduced_to: 1
  - symbol: Ge # 52
    coordinates: [  0.800000000000000,  0.444444444444445,  0.661835474847494 ]
    mass: 72.640000
    reduced_to: 1
  - symbol: Ge # 53
    coordinates: [  0.900000000000000,  0.277777777777779,  0.661835474847494 ]
    mass: 72.640000
    reduced_to: 1
  - symbol: Ge # 54
    coordinates: [  0.000000000000000,  0.111111111111112,  0.661835474847494 ]
    mass: 72.640000
    reduced_to: 1
  - symbol: Ge # 55
    coordinates: [  0.900000000000000,  0.611111111111112,  0.661835474847494 ]
    mass: 72.640000
    reduced_to: 1
  - symbol: Ge # 56
    coordinates: [  0.000000000000000,  0.444444444444445,  0.661835474847494 ]
    mass: 72.640000
    reduced_to: 1
  - symbol: Ge # 57
    coordinates: [  0.100000000000000,  0.277777777777779,  0.661835474847494 ]
    mass: 72.640000
    reduced_to: 1
  - symbol: Ge # 58
    coordinates: [  0.000000000000000,  0.777777777777779,  0.661835474847494 ]
    mass: 72.640000
    reduced_to: 1
  - symbol: Ge # 59
    coordinates: [  0.100000000000001,  0.611111111111112,  0.661835474847494 ]
    mass: 72.640000
    reduced_to: 1
  - symbol: Ge # 60
    coordinates: [  0.200000000000000,  0.444444444444445,  0.661835474847494 ]
    mass: 72.640000
    reduced_to: 1
  - symbol: Ge # 61
    coordinates: [  0.100000000000000,  0.055555555555556,  0.328502141514160 ]
    mass: 72.640000
    reduced_to: 1
  - symbol: Ge # 62
    coordinates: [  0.200000000000000,  0.888888888888890,  0.328502141514160 ]
    mass: 72.640000
    reduced_to: 1
  - symbol: Ge # 63
    coordinates: [  0.300000000000000,  0.722222222222223,  0.328502141514160 ]
    mass: 72.640000
    reduced_to: 1
  - symbol: Ge # 64
    coordinates: [  0.400000000000001,  0.555555555555556,  0.328502141514160 ]
    mass: 72.640000
    reduced_to: 1
  - symbol: Ge # 65
    coordinates: [  0.500000000000000,  0.388888888888890,  0.328502141514160 ]
    mass: 72.640000
    reduced_to: 1
  - symbol: Ge # 66
    coordinates: [  0.600000000000000,  0.222222222222223,  0.328502141514160 ]
    mass: 72.640000
    reduced_to: 1
  - symbol: Ge # 67
    coordinates: [  0.700000000000000,  0.055555555555557,  0.328502141514160 ]
    mass: 72.640000
    reduced_to: 1
  - symbol: Ge # 68
    coordinates: [  0.800000000000000,  0.888888888888890,  0.328502141514160 ]
    mass: 72.640000
    reduced_to: 1
  - symbol: Ge # 69
    coordinates: [  0.200000000000000,  0.222222222222223,  0.328502141514160 ]
    mass: 72.640000
    reduced_to: 1
  - symbol: Ge # 70
    coordinates: [  0.300000000000000,  0.055555555555556,  0.328502141514160 ]
    mass: 72.640000
    reduced_to: 1
  - symbol: Ge # 71
    coordinates: [  0.400000000000001,  0.888888888888890,  0.328502141514160 ]
    mass: 72.640000
    reduced_to: 1
  - symbol: Ge # 72
    coordinates: [  0.500000000000001,  0.722222222222223,  0.328502141514160 ]
    mass: 72.640000
    reduced_to: 1
  - symbol: Ge # 73
    coordinates: [  0.600000000000001,  0.555555555555556,  0.328502141514160 ]
    mass: 72.640000
    reduced_to: 1
  - symbol: Ge # 74
    coordinates: [  0.700000000000001,  0.388888888888890,  0.328502141514160 ]
    mass: 72.640000
    reduced_to: 1
  - symbol: Ge # 75
    coordinates: [  0.800000000000000,  0.222222222222223,  0.328502141514160 ]
    mass: 72.640000
    reduced_to: 1
  - symbol: Ge # 76
    coordinates: [  0.900000000000001,  0.055555555555556,  0.328502141514160 ]
    mass: 72.640000
    reduced_to: 1
  - symbol: Ge # 77
    coordinates: [  0.300000000000000,  0.388888888888890,  0.328502141514160 ]
    mass: 72.640000
    reduced_to: 1
  - symbol: Ge # 78
    coordinates: [  0.400000000000000,  0.222222222222223,  0.328502141514160 ]
    mass: 72.640000
    reduced_to: 1
  - symbol: Ge # 79
    coordinates: [  0.500000000000001,  0.055555555555556,  0.328502141514160 ]
    mass: 72.640000
    reduced_to: 1
  - symbol: Ge # 80
    coordinates: [  0.600000000000001,  0.888888888888890,  0.328502141514160 ]
    mass: 72.640000
    reduced_to: 1
  - symbol: Ge # 81
    coordinates: [  0.700000000000001,  0.722222222222223,  0.328502141514160 ]
    mass: 72.640000
    reduced_to: 1
  - symbol: Ge # 82
    coordinates: [  0.800000000000000,  0.555555555555556,  0.328502141514160 ]
    mass: 72.640000
    reduced_to: 1
  - symbol: Ge # 83
    coordinates: [  0.900000000000000,  0.388888888888890,  0.328502141514160 ]
    mass: 72.640000
    reduced_to: 1
  - symbol: Ge # 84
    coordinates: [  0.000000000000000,  0.222222222222223,  0.328502141514160 ]
    mass: 72.640000
    reduced_to: 1
  - symbol: Ge # 85
    coordinates: [  0.900000000000000,  0.722222222222223,  0.328502141514160 ]
    mass: 72.640000
    reduced_to: 1
  - symbol: Ge # 86
    coordinates: [  0.000000000000000,  0.555555555555556,  0.328502141514160 ]
    mass: 72.640000
    reduced_to: 1
  - symbol: Ge # 87
    coordinates: [  0.100000000000001,  0.388888888888890,  0.328502141514160 ]
    mass: 72.640000
    reduced_to: 1
  - symbol: Ge # 88
    coordinates: [  0.000000000000000,  0.888888888888890,  0.328502141514160 ]
    mass: 72.640000
    reduced_to: 1
  - symbol: Ge # 89
    coordinates: [  0.100000000000001,  0.722222222222223,  0.328502141514160 ]
    mass: 72.640000
    reduced_to: 1
  - symbol: Ge # 90
    coordinates: [  0.200000000000001,  0.555555555555556,  0.328502141514160 ]
    mass: 72.640000
    reduced_to: 1
  - symbol: Ge # 91
    coordinates: [  0.100000000000000,  0.055555555555556,  0.828502141514160 ]
    mass: 72.640000
    reduced_to: 1
  - symbol: Ge # 92
    coordinates: [  0.200000000000000,  0.888888888888890,  0.828502141514160 ]
    mass: 72.640000
    reduced_to: 1
  - symbol: Ge # 93
    coordinates: [  0.300000000000000,  0.722222222222223,  0.828502141514160 ]
    mass: 72.640000
    reduced_to: 1
  - symbol: Ge # 94
    coordinates: [  0.400000000000001,  0.555555555555556,  0.828502141514160 ]
    mass: 72.640000
    reduced_to: 1
  - symbol: Ge # 95
    coordinates: [  0.500000000000000,  0.388888888888890,  0.828502141514160 ]
    mass: 72.640000
    reduced_to: 1
  - symbol: Ge # 96
    coordinates: [  0.600000000000000,  0.222222222222223,  0.828502141514160 ]
    mass: 72.640000
    reduced_to: 1
  - symbol: Ge # 97
    coordinates: [  0.700000000000000,  0.055555555555557,  0.828502141514160 ]
    mass: 72.640000
    reduced_to: 1
  - symbol: Ge # 98
    coordinates: [  0.800000000000000,  0.888888888888890,  0.828502141514160 ]
    mass: 72.640000
    reduced_to: 1
  - symbol: Ge # 99
    coordinates: [  0.200000000000000,  0.222222222222223,  0.828502141514160 ]
    mass: 72.640000
    reduced_to: 1
  - symbol: Ge # 100
    coordinates: [  0.300000000000000,  0.055555555555556,  0.828502141514160 ]
    mass: 72.640000
    reduced_to: 1
  - symbol: Ge # 101
    coordinates: [  0.400000000000001,  0.888888888888890,  0.828502141514160 ]
    mass: 72.640000
    reduced_to: 1
  - symbol: Ge # 102
    coordinates: [  0.500000000000001,  0.722222222222223,  0.828502141514160 ]
    mass: 72.640000
    reduced_to: 1
  - symbol: Ge # 103
    coordinates: [  0.600000000000001,  0.555555555555556,  0.828502141514160 ]
    mass: 72.640000
    reduced_to: 1
  - symbol: Ge # 104
    coordinates: [  0.700000000000001,  0.388888888888890,  0.828502141514160 ]
    mass: 72.640000
    reduced_to: 1
  - symbol: Ge # 105
    coordinates: [  0.800000000000000,  0.222222222222223,  0.828502141514160 ]
    mass: 72.640000
    reduced_to: 1
  - symbol: Ge # 106
    coordinates: [  0.900000000000001,  0.055555555555556,  0.828502141514160 ]
    mass: 72.640000
    reduced_to: 1
  - symbol: Ge # 107
    coordinates: [  0.300000000000000,  0.388888888888890,  0.828502141514160 ]
    mass: 72.640000
    reduced_to: 1
  - symbol: Ge # 108
    coordinates: [  0.400000000000000,  0.222222222222223,  0.828502141514160 ]
    mass: 72.640000
    reduced_to: 1
  - symbol: Ge # 109
    coordinates: [  0.500000000000001,  0.055555555555556,  0.828502141514160 ]
    mass: 72.640000
    reduced_to: 1
  - symbol: Ge # 110
    coordinates: [  0.600000000000001,  0.888888888888890,  0.828502141514160 ]
    mass: 72.640000
    reduced_to: 1
  - symbol: Ge # 111
    coordinates: [  0.700000000000001,  0.722222222222223,  0.828502141514160 ]
    mass: 72.640000
    reduced_to: 1
  - symbol: Ge # 112
    coordinates: [  0.800000000000000,  0.555555555555556,  0.828502141514160 ]
    mass: 72.640000
    reduced_to: 1
  - symbol: Ge # 113
    coordinates: [  0.900000000000000,  0.388888888888890,  0.828502141514160 ]
    mass: 72.640000
    reduced_to: 1
  - symbol: Ge # 114
    coordinates: [  0.000000000000000,  0.222222222222223,  0.828502141514160 ]
    mass: 72.640000
    reduced_to: 1
  - symbol: Ge # 115
    coordinates: [  0.900000000000000,  0.722222222222223,  0.828502141514160 ]
    mass: 72.640000
    reduced_to: 1
  - symbol: Ge # 116
    coordinates: [  0.000000000000000,  0.555555555555556,  0.828502141514160 ]
    mass: 72.640000
    reduced_to: 1
  - symbol: Ge # 117
    coordinates: [  0.100000000000001,  0.388888888888890,  0.828502141514160 ]
    mass: 72.640000
    reduced_to: 1
  - symbol: Ge # 118
    coordinates: [  0.000000000000000,  0.888888888888890,  0.828502141514160 ]
    mass: 72.640000
    reduced_to: 1
  - symbol: Ge # 119
    coordinates: [  0.100000000000001,  0.722222222222223,  0.828502141514160 ]
    mass: 72.640000
    reduced_to: 1
  - symbol: Ge # 120
    coordinates: [  0.200000000000001,  0.555555555555556,  0.828502141514160 ]
    mass: 72.640000
    reduced_to: 1
  - symbol: Ge # 121
    coordinates: [  0.000000000000001,  0.000000000000001,  0.495168808180827 ]
    mass: 72.640000
    reduced_to: 1
  - symbol: Ge # 122
    coordinates: [  0.100000000000001,  0.833333333333334,  0.495168808180827 ]
    mass: 72.640000
    reduced_to: 1
  - symbol: Ge # 123
    coordinates: [  0.200000000000001,  0.666666666666668,  0.495168808180827 ]
    mass: 72.640000
    reduced_to: 1
  - symbol: Ge # 124
    coordinates: [  0.300000000000001,  0.500000000000001,  0.495168808180827 ]
    mass: 72.640000
    reduced_to: 1
  - symbol: Ge # 125
    coordinates: [  0.400000000000001,  0.333333333333334,  0.495168808180827 ]
    mass: 72.640000
    reduced_to: 1
  - symbol: Ge # 126
    coordinates: [  0.500000000000000,  0.166666666666668,  0.495168808180827 ]
    mass: 72.640000
    reduced_to: 1
  - symbol: Ge # 127
    coordinates: [  0.600000000000001,  0.000000000000001,  0.495168808180827 ]
    mass: 72.640000
    reduced_to: 1
  - symbol: Ge # 128
    coordinates: [  0.700000000000001,  0.833333333333334,  0.495168808180827 ]
    mass: 72.640000
    reduced_to: 1
  - symbol: Ge # 129
    coordinates: [  0.100000000000001,  0.166666666666667,  0.495168808180827 ]
    mass: 72.640000
    reduced_to: 1
  - symbol: Ge # 130
    coordinates: [  0.200000000000001,  0.000000000000001,  0.495168808180827 ]
    mass: 72.640000
    reduced_to: 1
  - symbol: Ge # 131
    coordinates: [  0.300000000000000,  0.833333333333334,  0.495168808180827 ]
    mass: 72.640000
    reduced_to: 1
  - symbol: Ge # 132
    coordinates: [  0.400000000000001,  0.666666666666667,  0.495168808180827 ]
    mass: 72.640000
    reduced_to: 1
  - symbol: Ge # 133
    coordinates: [  0.500000000000001,  0.500000000000001,  0.495168808180827 ]
    mass: 72.640000
    reduced_to: 1
  - symbol: Ge # 134
    coordinates: [  0.600000000000001,  0.333333333333334,  0.495168808180827 ]
    mass: 72.640000
    reduced_to: 1
  - symbol: Ge # 135
    coordinates: [  0.700000000000001,  0.166666666666668,  0.495168808180827 ]
    mass: 72.640000
    reduced_to: 1
  - symbol: Ge # 136
    coordinates: [  0.800000000000001,  0.000000000000001,  0.495168808180827 ]
    mass: 72.640000
    reduced_to: 1
  - symbol: Ge # 137
    coordinates: [  0.200000000000001,  0.333333333333334,  0.495168808180827 ]
    mass: 72.640000
    reduced_to: 1
  - symbol: Ge # 138
    coordinates: [  0.300000000000001,  0.166666666666667,  0.495168808180827 ]
    mass: 72.640000
    reduced_to: 1
  - symbol: Ge # 139
    coordinates: [  0.400000000000001,  0.000000000000001,  0.495168808180827 ]
    mass: 72.640000
    reduced_to: 1
  - symbol: Ge # 140
    coordinates: [  0.500000000000001,  0.833333333333334,  0.495168808180827 ]
    mass: 72.640000
    reduced_to: 1
  - symbol: Ge # 141
    coordinates: [  0.600000000000001,  0.666666666666668,  0.495168808180827 ]
    mass: 72.640000
    reduced_to: 1
  - symbol: Ge # 142
    coordinates: [  0.700000000000001,  0.500000000000001,  0.495168808180827 ]
    mass: 72.640000
    reduced_to: 1
  - symbol: Ge # 143
    coordinates: [  0.800000000000001,  0.333333333333334,  0.495168808180827 ]
    mass: 72.640000
    reduced_to: 1
  - symbol: Ge # 144
    coordinates: [  0.900000000000001,  0.166666666666668,  0.495168808180827 ]
    mass: 72.640000
    reduced_to: 1
  - symbol: Ge # 145
    coordinates: [  0.800000000000000,  0.666666666666668,  0.495168808180827 ]
    mass: 72.640000
    reduced_to: 1
  - symbol: Ge # 146
    coordinates: [  0.900000000000001,  0.500000000000001,  0.495168808180827 ]
    mass: 72.640000
    reduced_to: 1
  - symbol: Ge # 147
    coordinates: [  0.000000000000001,  0.333333333333334,  0.495168808180827 ]
    mass: 72.640000
    reduced_to: 1
  - symbol: Ge # 148
    coordinates: [  0.900000000000000,  0.833333333333334,  0.495168808180827 ]
    mass: 72.640000
    reduced_to: 1
  - symbol: Ge # 149
    coordinates: [  0.000000000000001,  0.666666666666667,  0.495168808180827 ]
    mass: 72.640000
    reduced_to: 1
  - symbol: Ge # 150
    coordinates: [  0.100000000000001,  0.500000000000001,  0.495168808180827 ]
    mass: 72.640000
    reduced_to: 1
  - symbol: Ge # 151
    coordinates: [  0.000000000000001,  0.000000000000001,  0.995168808180827 ]
    mass: 72.640000
    reduced_to: 1
  - symbol: Ge # 152
    coordinates: [  0.100000000000001,  0.833333333333334,  0.995168808180827 ]
    mass: 72.640000
    reduced_to: 1
  - symbol: Ge # 153
    coordinates: [  0.200000000000001,  0.666666666666668,  0.995168808180827 ]
    mass: 72.640000
    reduced_to: 1
  - symbol: Ge # 154
    coordinates: [  0.300000000000001,  0.500000000000001,  0.995168808180827 ]
    mass: 72.640000
    reduced_to: 1
  - symbol: Ge # 155
    coordinates: [  0.400000000000001,  0.333333333333334,  0.995168808180827 ]
    mass: 72.640000
    reduced_to: 1
  - symbol: Ge # 156
    coordinates: [  0.500000000000000,  0.166666666666668,  0.995168808180827 ]
    mass: 72.640000
    reduced_to: 1
  - symbol: Ge # 157
    coordinates: [  0.600000000000001,  0.000000000000001,  0.995168808180827 ]
    mass: 72.640000
    reduced_to: 1
  - symbol: Ge # 158
    coordinates: [  0.700000000000001,  0.833333333333334,  0.995168808180827 ]
    mass: 72.640000
    reduced_to: 1
  - symbol: Ge # 159
    coordinates: [  0.100000000000001,  0.166666666666667,  0.995168808180827 ]
    mass: 72.640000
    reduced_to: 1
  - symbol: Ge # 160
    coordinates: [  0.200000000000001,  0.000000000000001,  0.995168808180827 ]
    mass: 72.640000
    reduced_to: 1
  - symbol: Ge # 161
    coordinates: [  0.300000000000000,  0.833333333333334,  0.995168808180827 ]
    mass: 72.640000
    reduced_to: 1
  - symbol: Ge # 162
    coordinates: [  0.400000000000001,  0.666666666666667,  0.995168808180827 ]
    mass: 72.640000
    reduced_to: 1
  - symbol: Ge # 163
    coordinates: [  0.500000000000001,  0.500000000000001,  0.995168808180827 ]
    mass: 72.640000
    reduced_to: 1
  - symbol: Ge # 164
    coordinates: [  0.600000000000001,  0.333333333333334,  0.995168808180827 ]
    mass: 72.640000
    reduced_to: 1
  - symbol: Ge # 165
    coordinates: [  0.700000000000001,  0.166666666666668,  0.995168808180827 ]
    mass: 72.640000
    reduced_to: 1
  - symbol: Ge # 166
    coordinates: [  0.800000000000001,  0.000000000000001,  0.995168808180827 ]
    mass: 72.640000
    reduced_to: 1
  - symbol: Ge # 167
    coordinates: [  0.200000000000001,  0.333333333333334,  0.995168808180827 ]
    mass: 72.640000
    reduced_to: 1
  - symbol: Ge # 168
    coordinates: [  0.300000000000001,  0.166666666666667,  0.995168808180827 ]
    mass: 72.640000
    reduced_to: 1
  - symbol: Ge # 169
    coordinates: [  0.400000000000001,  0.000000000000001,  0.995168808180827 ]
    mass: 72.640000
    reduced_to: 1
  - symbol: Ge # 170
    coordinates: [  0.500000000000001,  0.833333333333334,  0.995168808180827 ]
    mass: 72.640000
    reduced_to: 1
  - symbol: Ge # 171
    coordinates: [  0.600000000000001,  0.666666666666668,  0.995168808180827 ]
    mass: 72.640000
    reduced_to: 1
  - symbol: Ge # 172
    coordinates: [  0.700000000000001,  0.500000000000001,  0.995168808180827 ]
    mass: 72.640000
    reduced_to: 1
  - symbol: Ge # 173
    coordinates: [  0.800000000000001,  0.333333333333334,  0.995168808180827 ]
    mass: 72.640000
    reduced_to: 1
  - symbol: Ge # 174
    coordinates: [  0.900000000000001,  0.166666666666668,  0.995168808180827 ]
    mass: 72.640000
    reduced_to: 1
  - symbol: Ge # 175
    coordinates: [  0.800000000000000,  0.666666666666668,  0.995168808180827 ]
    mass: 72.640000
    reduced_to: 1
  - symbol: Ge # 176
    coordinates: [  0.900000000000001,  0.500000000000001,  0.995168808180827 ]
    mass: 72.640000
    reduced_to: 1
  - symbol: Ge # 177
    coordinates: [  0.000000000000001,  0.333333333333334,  0.995168808180827 ]
    mass: 72.640000
    reduced_to: 1
  - symbol: Ge # 178
    coordinates: [  0.900000000000000,  0.833333333333334,  0.995168808180827 ]
    mass: 72.640000
    reduced_to: 1
  - symbol: Ge # 179
    coordinates: [  0.000000000000001,  0.666666666666667,  0.995168808180827 ]
    mass: 72.640000
    reduced_to: 1
  - symbol: Ge # 180
    coordinates: [  0.100000000000001,  0.500000000000001,  0.995168808180827 ]
    mass: 72.640000
    reduced_to: 1
  - symbol: Te # 181
    coordinates: [  0.100000000000000,  0.055555555555556,  0.098664525152507 ]
    mass: 127.600000
    reduced_to: 181
  - symbol: Te # 182
    coordinates: [  0.200000000000000,  0.888888888888889,  0.098664525152507 ]
    mass: 127.600000
    reduced_to: 181
  - symbol: Te # 183
    coordinates: [  0.300000000000000,  0.722222222222223,  0.098664525152507 ]
    mass: 127.600000
    reduced_to: 181
  - symbol: Te # 184
    coordinates: [  0.400000000000000,  0.555555555555556,  0.098664525152507 ]
    mass: 127.600000
    reduced_to: 181
  - symbol: Te # 185
    coordinates: [  0.500000000000001,  0.388888888888889,  0.098664525152507 ]
    mass: 127.600000
    reduced_to: 181
  - symbol: Te # 186
    coordinates: [  0.600000000000001,  0.222222222222223,  0.098664525152507 ]
    mass: 127.600000
    reduced_to: 181
  - symbol: Te # 187
    coordinates: [  0.700000000000001,  0.055555555555556,  0.098664525152507 ]
    mass: 127.600000
    reduced_to: 181
  - symbol: Te # 188
    coordinates: [  0.800000000000000,  0.888888888888889,  0.098664525152507 ]
    mass: 127.600000
    reduced_to: 181
  - symbol: Te # 189
    coordinates: [  0.200000000000001,  0.222222222222222,  0.098664525152507 ]
    mass: 127.600000
    reduced_to: 181
  - symbol: Te # 190
    coordinates: [  0.300000000000000,  0.055555555555556,  0.098664525152507 ]
    mass: 127.600000
    reduced_to: 181
  - symbol: Te # 191
    coordinates: [  0.400000000000001,  0.888888888888889,  0.098664525152507 ]
    mass: 127.600000
    reduced_to: 181
  - symbol: Te # 192
    coordinates: [  0.500000000000000,  0.722222222222223,  0.098664525152507 ]
    mass: 127.600000
    reduced_to: 181
  - symbol: Te # 193
    coordinates: [  0.600000000000001,  0.555555555555556,  0.098664525152507 ]
    mass: 127.600000
    reduced_to: 181
  - symbol: Te # 194
    coordinates: [  0.700000000000001,  0.388888888888889,  0.098664525152507 ]
    mass: 127.600000
    reduced_to: 181
  - symbol: Te # 195
    coordinates: [  0.800000000000000,  0.222222222222223,  0.098664525152507 ]
    mass: 127.600000
    reduced_to: 181
  - symbol: Te # 196
    coordinates: [  0.900000000000000,  0.055555555555556,  0.098664525152507 ]
    mass: 127.600000
    reduced_to: 181
  - symbol: Te # 197
    coordinates: [  0.300000000000000,  0.388888888888889,  0.098664525152507 ]
    mass: 127.600000
    reduced_to: 181
  - symbol: Te # 198