360  
11   

1    
  0.0014285714285714  -0.0098974331861079   0.0000000000000000
  -0.0020156200    0.0138022300   -0.0000061100
   0.0007956300   -0.0011160100   -0.0000140400
   0.0000378300   -0.0000293200   -0.0000021200
   0.0000020700   -0.0000127700   -0.0000026300
  -0.0000125000   -0.0000179800   -0.0000008600
  -0.0000206700   -0.0000216900   -0.0000037300
  -0.0000113700   -0.0000176600   -0.0000012800
   0.0000029100   -0.0000125800   -0.0000012100
   0.0000372700   -0.0000307300   -0.0000013700
   0.0007846000   -0.0011018800   -0.0000142900
  -0.0007451700   -0.0008898200   -0.0000277500
   0.0002110700    0.0003337300    0.0000395200
   0.0000716200   -0.0000117900    0.0000056200
   0.0000250000    0.0000277600    0.0000122500
  -0.0000325200   -0.0000052700    0.0000004700
  -0.0000409400   -0.0000320900   -0.0000074800
  -0.0000094800   -0.0000301400   -0.0000023700
  -0.0000044300   -0.0000223000   -0.0000009800
  -0.0000005000   -0.0000279600    0.0000004800
  -0.0000021600   -0.0000891800    0.0000007400
  -0.0000421900   -0.0000340300   -0.0000075100
  -0.0000353200   -0.0000055600   -0.0000003100
   0.0000252400    0.0000251600    0.0000098300
   0.0000686400   -0.0000113500    0.0000038300
   0.0002164400    0.0003306500    0.0000404700
  -0.0007555500   -0.0008958600   -0.0000239000
  -0.0000031300   -0.0000882200   -0.0000021600
  -0.0000005200   -0.0000294300   -0.0000016200
  -0.0000047500   -0.0000219700   -0.0000006600
  -0.0000096800   -0.0000302200    0.0000013300
  -0.0000047200    0.0000461300   -0.0000004200
   0.0000118500    0.0000082100   -0.0000009400
   0.0000100700   -0.0000056700   -0.0000007000
  -0.0000002000   -0.0000055400    0.0000018700
  -0.0000057700   -0.0000091600    0.0000014600
  -0.0000082200   -0.0000112100    0.0000007300
  -0.0000065200   -0.0000096500    0.0000013000
   0.0000002200   -0.0000048000   -0.0000003100
   0.0000076400   -0.0000059800   -0.0000007300
   0.0000114300    0.0000064300   -0.0000010700
  -0.0000107800    0.0000091200   -0.0000008300
   0.0000044400    0.0000275300   -0.0000010000
   0.0000177400    0.0000078200   -0.0000026800
   0.0000094700    0.0000063600   -0.0000022800
  -0.0000061800    0.0000048900   -0.0000013400
  -0.0000117600   -0.0000095700    0.0000022400
  -0.0000033700   -0.0000119900   -0.0000011300
  -0.0000018100   -0.0000119900    0.0000016300
  -0.0000008500   -0.0000100200    0.0000002500
  -0.0000020500   -0.0000158500    0.0000021400
  -0.0000086500   -0.0000123000   -0.0000008300
  -0.0000089000    0.0000046300   -0.0000018600
   0.0000099800    0.0000065000   -0.0000004200
   0.0000172300    0.0000074400   -0.0000011300
   0.0000047600    0.0000263600   -0.0000029600
  -0.0000142300    0.0000108200    0.0000012800
  -0.0000011600   -0.0000165600   -0.0000000100
  -0.0000005500   -0.0000128700    0.0000001000
  -0.0000040800   -0.0000096700    0.0000029400
  -0.0000045800   -0.0000112800    0.0000010200
  -0.0000460900    0.0003456700   -0.0000005100
   0.0001185700   -0.0000732100    0.0001607600
   0.0000266900   -0.0000144800    0.0000316100
   0.0000029300   -0.0000080300    0.0000137600
  -0.0000094000   -0.0000145700    0.0000055400
  -0.0000151100   -0.0000164800    0.0000023400
  -0.0000093800   -0.0000138400   -0.0000044000
   0.0000004800   -0.0000090400   -0.0000104200
   0.0000181100   -0.0000165600   -0.0000300000
   0.0000791100   -0.0000804700   -0.0001457800
  -0.0000878000   -0.0000468700   -0.0001187000
   0.0000032400    0.0001120300   -0.0000008600
   0.0000463600   -0.0000034000    0.0000265900
   0.0000205200    0.0000186700   -0.0000003600
  -0.0000195500    0.0000008300    0.0000260500
  -0.0000273600   -0.0000193400    0.0000283300
  -0.0000053500   -0.0000208800    0.0000144000
  -0.0000030800   -0.0000169800   -0.0000004400
  -0.0000006400   -0.0000196700   -0.0000154800
  -0.0000028200   -0.0000540800   -0.0000619500
  -0.0000220900   -0.0000208200   -0.0000216500
  -0.0000234200   -0.0000008800   -0.0000206500
   0.0000139500    0.0000153800   -0.0000085200
   0.0000426100   -0.0000038000   -0.0000289900
   0.0000425100    0.0001163100   -0.0000398200
  -0.0001280900   -0.0000511300    0.0001443100
  -0.0000020600   -0.0000554800    0.0000567400
  -0.0000023300   -0.0000202200    0.0000179100
  -0.0000040200   -0.0000171600    0.0000012300
  -0.0000071900   -0.0000207700   -0.0000142000
  -0.0000437300    0.0003457800    0.0000024700
   0.0000791400   -0.0000792600   -0.0001459500
   0.0000193400   -0.0000164700   -0.0000292800
  -0.0000010200   -0.0000099600   -0.0000136300
  -0.0000088600   -0.0000130000   -0.0000061400
  -0.0000135900   -0.0000156500    0.0000014000
  -0.0000085900   -0.0000139100    0.0000042300
   0.0000023600   -0.0000082900    0.0000120500
   0.0000242200   -0.0000164000    0.0000318900
   0.0001181000   -0.0000736500    0.0001619700
  -0.0001259500   -0.0000540000    0.0001486500
   0.0000398600    0.0001188300   -0.0000402700
   0.0000452000   -0.0000023000   -0.0000272300
   0.0000136700    0.0000157000   -0.0000092000
  -0.0000206600   -0.0000016600   -0.0000239700
  -0.0000231000   -0.0000184600   -0.0000234200
  -0.0000076000   -0.0000218300   -0.0000107200
  -0.0000032900   -0.0000171400   -0.0000004400
  -0.0000008300   -0.0000184800    0.0000151600
  -0.0000013600   -0.0000552200    0.0000563300
  -0.0000265200   -0.0000219800    0.0000297100
  -0.0000227100   -0.0000004600    0.0000245400
   0.0000209100    0.0000160500   -0.0000007300
   0.0000454400   -0.0000016500    0.0000284800
   0.0000037700    0.0001112700    0.0000000400
  -0.0000912600   -0.0000460100   -0.0001205900
  -0.0000025400   -0.0000535100   -0.0000579900
   0.0000009900   -0.0000222000   -0.0000160600
  -0.0000047200   -0.0000145300   -0.0000032800
  -0.0000072000   -0.0000212800    0.0000117800
  -0.0078755000    0.0093591600    0.0000033400
  -0.0078556800    0.0093245200   -0.0000045400
  -0.0078474800    0.0093156700   -0.0000031800
  -0.0078514300    0.0093155200    0.0000007100
  -0.0078722900    0.0093006200   -0.0000033500
  -0.0078696200    0.0093042000   -0.0000008700
  -0.0078688200    0.0093058100    0.0000000400
  -0.0078668900    0.0093066200    0.0000012200
  -0.0078692400    0.0093017300    0.0000048900
  -0.0078664100    0.0093196600    0.0000097300
  -0.0078737400    0.0093213200    0.0000056900
  -0.0078741100    0.0093360400    0.0000041200
  -0.0078533200    0.0093235700    0.0000020100
  -0.0078434000    0.0093295600    0.0000057500
  -0.0078630500    0.0093213500   -0.0000025300
  -0.0078785900    0.0093020100   -0.0000097400
  -0.0078660400    0.0093014300   -0.0000019400
  -0.0078705100    0.0092992900    0.0000001400
  -0.0078693600    0.0093036300    0.0000014800
  -0.0078681700    0.0092976400    0.0000035800
  -0.0078733100    0.0093010100    0.0000009400
  -0.0078757600    0.0093172400    0.0000015100
  -0.0078670100    0.0093172300    0.0000023300
  -0.0078558800    0.0093174600    0.0000083000
  -0.0078510200    0.0093511100    0.0000052100
  -0.0078681800    0.0093358200   -0.0000067200
  -0.0078453700    0.0093060900   -0.0000100700
  -0.0078532000    0.0093090000   -0.0000011500
  -0.0078615500    0.0093018400   -0.0000000800
  -0.0078706300    0.0092997400    0.0000001600
  -0.0086648300    0.0098690900    0.0003912400
  -0.0077012600    0.0091726400    0.0000247600
  -0.0077923500    0.0093144100    0.0000070000
  -0.0078502300    0.0092850800   -0.0000013400
  -0.0078864900    0.0092820600    0.0000069100
  -0.0078991100    0.0092888900    0.0000011000
  -0.0078776200    0.0092959900    0.0000012000
  -0.0078758100    0.0092919000   -0.0000001600
  -0.0078850600    0.0092446200   -0.0000045000
  -0.0078535300    0.0089833000   -0.0000428400
  -0.0079170400    0.0093464500   -0.0000116300
  -0.0079268900    0.0094280900   -0.0000026300
  -0.0078126900    0.0093021000   -0.0000016700
  -0.0077592400    0.0094169000   -0.0000068000
  -0.0079310800    0.0091961300    0.0000154000
  -0.0079628700    0.0092740400    0.0000213600
  -0.0078692000    0.0092845200    0.0000030000
  -0.0078672100    0.0092879300    0.0000016900
  -0.0078723200    0.0092813400   -0.0000002900
  -0.0078599900    0.0092368100   -0.0000030900
  -0.0078855200    0.0092991800    0.0000008200
  -0.0078862700    0.0093242600   -0.0000005200
  -0.0078740100    0.0093303600   -0.0000001500
  -0.0078228900    0.0093103100   -0.0000165100
  -0.0068793200    0.0096123000    0.0006462900
  -0.0079931400    0.0081803900   -0.0010567000
  -0.0077752600    0.0092804800    0.0000225200
  -0.0078322000    0.0092899100    0.0000014100
  -0.0078600800    0.0092894600    0.0000014900
  -0.0078713300    0.0092778200    0.0000008000
   0.0088569200   -0.0090155400    0.0006544000
   0.0079097100   -0.0093175300   -0.0000181900
   0.0078611000   -0.0092980400   -0.0000014400
   0.0078422000   -0.0093046700   -0.0000020100
   0.0078361200   -0.0093276100   -0.0000004000
   0.0078567800   -0.0093508700   -0.0000006200
   0.0078682600   -0.0093424000   -0.0000000600
   0.0078955000   -0.0093388300   -0.0000001600
   0.0079528200   -0.0093506000    0.0000204500
   0.0077365300   -0.0104279500   -0.0010284000
   0.0077948200   -0.0094347800    0.0000158800
   0.0079648300   -0.0092158000   -0.0000078200
   0.0079127800   -0.0093271400   -0.0000033400
   0.0078111200   -0.0092031800   -0.0000042600
   0.0078138100   -0.0092796400   -0.0000131700
   0.0078688200   -0.0093830600   -0.0000046000
   0.0078554900   -0.0093521800   -0.0000018400
   0.0078643900   -0.0093420700    0.0000000200
   0.0078649900   -0.0093449500    0.0000014500
   0.0077626200   -0.0093511500    0.0000200000
   0.0078364900   -0.0093517600    0.0000056800
   0.0078752200   -0.0093457400   -0.0000029000
   0.0079396000   -0.0093173600    0.0000054200
   0.0080256900   -0.0094573900    0.0000256800
   0.0070599600   -0.0087567800    0.0003904700
   0.0078721800   -0.0096409300   -0.0000401300
   0.0078473000   -0.0093798900   -0.0000061000
   0.0078505700   -0.0093386400   -0.0000017900
   0.0078487800   -0.0093366100   -0.0000004300
   0.0078270800   -0.0093394400   -0.0000000800
   0.0078759500   -0.0092783700    0.0000037600
   0.0078740100   -0.0093097300    0.0000067400
   0.0078615700   -0.0093135800    0.0000007600
   0.0078555600   -0.0093160700    0.0000005400
   0.0078541300   -0.0093207500   -0.0000002100
   0.0078604300   -0.0093304400   -0.0000003400
   0.0078638500   -0.0093288500   -0.0000012900
   0.0078728100   -0.0093199100   -0.0000020800
   0.0078777600   -0.0093242800   -0.0000114900
   0.0078617500   -0.0092977500   -0.0000079100
   0.0078684800   -0.0093098000   -0.0000042900
   0.0078885300   -0.0092972600    0.0000041400
   0.0078789500   -0.0093015000    0.0000004600
   0.0078590200   -0.0092962000    0.0000024600
   0.0078485900   -0.0093083900    0.0000049000
   0.0078571200   -0.0093258200    0.0000027100
   0.0078624100   -0.0093352300   -0.0000000000
   0.0078610700   -0.0093256800   -0.0000008600
   0.0078641300   -0.0093236400   -0.0000029300
   0.0078529400   -0.0093277600   -0.0000112000
   0.0078568700   -0.0093289300   -0.0000045200
   0.0078747200   -0.0093160000   -0.0000005600
   0.0078825900   -0.0093140600   -0.0000042100
   0.0078729200   -0.0093038100   -0.0000058500
   0.0078492800   -0.0092771000    0.0000017600
   0.0078621000   -0.0093113400    0.0000084100
   0.0078669300   -0.0093258700    0.0000038300
   0.0078566000   -0.0093260300    0.0000004800
   0.0078571900   -0.0093248600   -0.0000011300
   0.0078564600   -0.0093236500   -0.0000021300
  -0.0106626700    0.0059670700   -0.0006533500
  -0.0100111600    0.0064010900   -0.0000877200
  -0.0099150700    0.0066114700   -0.0000068800
  -0.0097998200    0.0065688500   -0.0000039400
  -0.0097912000    0.0066020800   -0.0000064000
  -0.0098002600    0.0066711000   -0.0000059000
  -0.0098245200    0.0066380800    0.0000000900
  -0.0098493700    0.0066408400    0.0000033600
  -0.0098729800    0.0066731800    0.0000120600
  -0.0098101500    0.0066520900    0.0001400200
  -0.0097950600    0.0065822800    0.0000352200
  -0.0097595700    0.0065611100   -0.0000141500
  -0.0099603100    0.0065260900    0.0000011900
  -0.0100278300    0.0065662700   -0.0000075900
  -0.0096911300    0.0063624300   -0.0000542700
  -0.0097722500    0.0067477600   -0.0000217300
  -0.0098310600    0.0066563700   -0.0000088700
  -0.0098379500    0.0066410000   -0.0000010000
  -0.0098284200    0.0066427000    0.0000028700
  -0.0097835800    0.0066785200    0.0000116600
  -0.0098079200    0.0066437700    0.0000033900
  -0.0098181600    0.0066161700    0.0000044800
  -0.0098508900    0.0066204300    0.0000070000
  -0.0099410500    0.0066078800    0.0000346200
  -0.0084452000    0.0056467700   -0.0010835500
  -0.0098308400    0.0038345900    0.0017937800
  -0.0099039400    0.0067356700   -0.0000301800
  -0.0098508800    0.0066518600   -0.0000080900
  -0.0098282800    0.0066264300   -0.0000017300
  -0.0098067900    0.0066434000    0.0000013800
  -0.0098203200    0.0065286500   -0.0000279000
  -0.0098686300    0.0065768000    0.0000461500
  -0.0098577000    0.0065908400    0.0000075500
  -0.0098393500    0.0065899100    0.0000057800
  -0.0098257800    0.0066015700    0.0000062000
  -0.0098323000    0.0066163300    0.0000041400
  -0.0098326000    0.0066093100    0.0000005300
  -0.0098443400    0.0066196500   -0.0000037600
  -0.0098494100    0.0066130500   -0.0000120800
  -0.0098403100    0.0066095000   -0.0000759200
  -0.0098210200    0.0065951400   -0.0000235600
  -0.0098484100    0.0065731500    0.0000011400
  -0.0098668700    0.0065824600    0.0000000000
  -0.0098597800    0.0065713100   -0.0000028500
  -0.0098238200    0.0065722000    0.0000289300
  -0.0098293100    0.0066087500    0.0000249000
  -0.0098363700    0.0066136800    0.0000085300
  -0.0098292800    0.0066182300    0.0000014600
  -0.0098384700    0.0066211900   -0.0000029800
  -0.0098281200    0.0066159700   -0.0000114400
  -0.0098261000    0.0066119300   -0.0000037500
  -0.0098307700    0.0066057000   -0.0000053700
  -0.0098557800    0.0065947300   -0.0000053100
  -0.0098720000    0.0065943800   -0.0000258400
  -0.0098605800    0.0065284700   -0.0000467500
  -0.0098382500    0.0065639700    0.0000756600
  -0.0098542500    0.0066055400    0.0000287600
  -0.0098435200    0.0065958700    0.0000070000
  -0.0098444900    0.0066152800    0.0000025100
  -0.0098263100    0.0066185600   -0.0000018500
   0.0098256000   -0.0066623400   -0.0000469700
   0.0098155000   -0.0065946300   -0.0000266300
   0.0098338400   -0.0065926100   -0.0000053800
   0.0098481900   -0.0065833900   -0.0000047800
   0.0098548300   -0.0065781200   -0.0000034600
   0.0098503300   -0.0065759700   -0.0000015000
   0.0098486600   -0.0065849300    0.0000023300
   0.0098321600   -0.0065823700    0.0000065600
   0.0098299100   -0.0065869000    0.0000283900
   0.0098442000   -0.0066292600    0.0000749800
   0.0098568700   -0.0066046800    0.0000291800
   0.0098211200   -0.0066240800   -0.0000027500
   0.0098144900   -0.0066102400   -0.0000001400
   0.0098389000   -0.0066220700    0.0000010400
   0.0098578000   -0.0065847600   -0.0000234700
   0.0098645200   -0.0065845700   -0.0000121200
   0.0098508300   -0.0065616500   -0.0000029600
   0.0098423200   -0.0065735700    0.0000017000
   0.0098431700   -0.0065707000    0.0000083400
   0.0098659600   -0.0065952900    0.0000241000
   0.0098477900   -0.0065911500    0.0000062600
   0.0098488500   -0.0065995600    0.0000062200
   0.0098230100   -0.0065946100    0.0000076900
   0.0098149200   -0.0066191000    0.0000463200
   0.0098549300   -0.0066632000   -0.0000285300
   0.0098451900   -0.0065787200   -0.0000762300
   0.0098221200   -0.0065825500   -0.0000120700
   0.0098371600   -0.0065801400   -0.0000029800
   0.0098491900   -0.0065769500    0.0000004100
   0.0098617200   -0.0065751400    0.0000037200
   0.0112567600   -0.0075304800   -0.0011085400
   0.0097388800   -0.0065876200    0.0000355600
   0.0098306500   -0.0065702700    0.0000068100
   0.0098609100   -0.0065764400    0.0000037300
   0.0098812700   -0.0065487900    0.0000029100
   0.0098787000   -0.0065440500    0.0000009200
   0.0098590100   -0.0065610400   -0.0000018700
   0.0098283200   -0.0065360800   -0.0000080900
   0.0097762400   -0.0064602000   -0.0000291500
   0.0098685200   -0.0092966400    0.0017205000
   0.0099758400   -0.0068236300   -0.0000545600
   0.0096742400   -0.0066355900   -0.0000075700
   0.0097235500   -0.0066446500    0.0000013100
   0.0099274200   -0.0066309900   -0.0000142400
   0.0098921500   -0.0066065300    0.0000351200
   0.0099010900   -0.0065135200    0.0000118100
   0.0098533500   -0.0065437700    0.0000024200
   0.0098438100   -0.0065497400   -0.0000014300
   0.0098523900   -0.0065309100   -0.0000087400
   0.0099193100   -0.0064523000   -0.0000206500
   0.0098800900   -0.0065923200   -0.0000069400
   0.0098844900   -0.0066253000   -0.0000047500
   0.0097541500   -0.0065907700   -0.0000072100
   0.0096701400   -0.0067854100   -0.0000867100
   0.0090145400   -0.0072201100   -0.0006570600
   0.0098739400   -0.0065437300    0.0001430400
   0.0098048000   -0.0065152100    0.0000115500
   0.0098351300   -0.0065515300    0.0000022900
   0.0098553300   -0.0065481200    0.0000000800
   0.0098855600   -0.0065207300   -0.0000054400

1    
  0.0091766293548225  -0.0039735970711951   0.0000000000000000
  -0.0127994000    0.0055687800   -0.0000074600
   0.0004241900   -0.0011229700    0.0000253700
   0.0000196500   -0.0000429600    0.0000062500
   0.0000173200   -0.0000044100   -0.0000008700
   0.0000061300    0.0000050600   -0.0000008100
  -0.0000106800    0.0000089800   -0.0000046300
   0.0000074800    0.0000053100   -0.0000008900
   0.0000178700   -0.0000039000    0.0000004700
   0.0000187100   -0.0000449500    0.0000053100
   0.0004205300   -0.0011110700    0.0000239500
  -0.0001999300    0.0003043600   -0.0000427100
   0.0013522800    0.0001311000    0.0000159600
   0.0000992100   -0.0000579300    0.0000066600
   0.0000682300   -0.0000001200    0.0000068600
   0.0000446700    0.0000352700   -0.0000002700
  -0.0000233200    0.0000230900   -0.0000106700
  -0.0000013500   -0.0000031300   -0.0000027200
   0.0000053600   -0.0000050100   -0.0000010300
   0.0000042200   -0.0000096600   -0.0000000200
  -0.0000120400   -0.0000352300    0.0000001200
  -0.0000247400    0.0000209400   -0.0000109100
   0.0000411700    0.0000348800   -0.0000008200
   0.0000683900   -0.0000028200    0.0000040700
   0.0000961300   -0.0000570400    0.0000044800
   0.0013387200    0.0001256800    0.0000168500
  -0.0002001200    0.0003088200   -0.0000389200
  -0.0000136700   -0.0000346300   -0.0000020900
   0.0000039700   -0.0000116300   -0.0000020000
   0.0000045300   -0.0000045300   -0.0000007400
  -0.0000016700   -0.0000033500    0.0000014600
  -0.0000405500    0.0000152400   -0.0000001200
  -0.0000093600   -0.0000077500   -0.0000024600
   0.0000080800   -0.0000098500   -0.0000018000
   0.0000059800   -0.0000022800    0.0000020600
   0.0000013000    0.0000018100    0.0000017800
  -0.0000029900    0.0000019000    0.0000005000
   0.0000001100    0.0000009100    0.0000009300
   0.0000062400   -0.0000013800   -0.0000008000
   0.0000046600   -0.0000104900   -0.0000013500
  -0.0000098100   -0.0000099400   -0.0000030500
  -0.0000186700    0.0000132200   -0.0000003300
   0.0000050300    0.0000073400   -0.0000000900
   0.0000195900   -0.0000100600   -0.0000042200
   0.0000175400   -0.0000034000   -0.0000024600
   0.0000071600    0.0000104900    0.0000003100
  -0.0000067100    0.0000054000    0.0000033000
   0.0000008200    0.0000007300   -0.0000016600
   0.0000033800   -0.0000030200    0.0000013700
   0.0000008400   -0.0000026300   -0.0000003000
  -0.0000078400   -0.0000067100    0.0000009700
  -0.0000031100    0.0000023500   -0.0000007100
   0.0000040100    0.0000102700    0.0000003900
   0.0000186600   -0.0000033700    0.0000001600
   0.0000194300   -0.0000098900   -0.0000019800
   0.0000060600    0.0000053800   -0.0000025400
  -0.0000230300    0.0000157600    0.0000016700
  -0.0000070600   -0.0000079300   -0.0000021400
   0.0000011800   -0.0000060900   -0.0000010200
   0.0000002800   -0.0000001100    0.0000025800
  -0.0000010100    0.0000011000    0.0000016600
  -0.0003143100    0.0001360500   -0.0000006200
   0.0000054800   -0.0001036500    0.0001171100
   0.0000144600   -0.0000204600    0.0000156000
   0.0000133600   -0.0000013000   -0.0000028200
   0.0000033900    0.0000026500   -0.0000075300
  -0.0000076500    0.0000047400    0.0000025200
   0.0000034200    0.0000028700    0.0000084700
   0.0000114700   -0.0000033800    0.0000050000
   0.0000096900   -0.0000289800   -0.0000200900
  -0.0000105600   -0.0001423800   -0.0001420700
  -0.0000790900    0.0000851400    0.0000393600
   0.0001121500    0.0000241800    0.0001390600
   0.0000616800   -0.0000356600    0.0000425700
   0.0000422800    0.0000022800   -0.0000211100
   0.0000277100    0.0000252400   -0.0000318800
  -0.0000160200    0.0000118500   -0.0000012400
   0.0000009600   -0.0000009300    0.0000082300
   0.0000044500   -0.0000039900    0.0000022300
   0.0000029700   -0.0000069000   -0.0000044000
  -0.0000103100   -0.0000215400   -0.0000236000
  -0.0000131000    0.0000138700    0.0000098100
   0.0000228800    0.0000229800    0.0000327500
   0.0000394500   -0.0000059400    0.0000178100
   0.0000582000   -0.0000361500   -0.0000430800
   0.0001283700    0.0000580300   -0.0001547700
  -0.0000980500    0.0000519500    0.0000015500
  -0.0000102500   -0.0000230700    0.0000224500
   0.0000004600   -0.0000074500    0.0000080100
   0.0000027000   -0.0000038900   -0.0000012500
  -0.0000014600   -0.0000009100   -0.0000080100
  -0.0003119300    0.0001362100    0.0000024700
  -0.0000110800   -0.0001402500   -0.0001421400
   0.0000114500   -0.0000287600   -0.0000200600
   0.0000102000   -0.0000048900    0.0000014600
   0.0000042000    0.0000040400    0.0000065500
  -0.0000060900    0.0000061000    0.0000020500
   0.0000042700    0.0000031500   -0.0000085900
   0.0000126500   -0.0000015800   -0.0000046100
   0.0000112800   -0.0000233400    0.0000162600
   0.0000044500   -0.0001043600    0.0001189700
  -0.0000947900    0.0000482600    0.0000057000
   0.0001253100    0.0000611500   -0.0001561000
   0.0000608500   -0.0000343800   -0.0000411900
   0.0000391300   -0.0000057600    0.0000169200
   0.0000261400    0.0000220300    0.0000300000
  -0.0000143400    0.0000163700    0.0000080400
  -0.0000016300   -0.0000020100   -0.0000037100
   0.0000040600   -0.0000039400   -0.0000026400
   0.0000022600   -0.0000056700    0.0000047100
  -0.0000095300   -0.0000217700    0.0000211300
  -0.0000151200    0.0000088500    0.0000010700
   0.0000239700    0.0000236600   -0.0000341100
   0.0000431700   -0.0000006100   -0.0000220900
   0.0000610800   -0.0000327300    0.0000442700
   0.0001132600    0.0000225000    0.0001392900
  -0.0000827000    0.0000866600    0.0000376900
  -0.0000107300   -0.0000210300   -0.0000195600
   0.0000046200   -0.0000101600   -0.0000049000
   0.0000021100   -0.0000009200   -0.0000004300
  -0.0000014000   -0.0000016700    0.0000050100
  -0.0078886800    0.0093405300   -0.0000038600
  -0.0078597300    0.0093129600   -0.0000076800
  -0.0078461900    0.0093111200   -0.0000011600
  -0.0078455900    0.0093217400    0.0000041100
  -0.0078603600    0.0093159300    0.0000007600
  -0.0078694800    0.0093175900    0.0000003000
  -0.0078643000    0.0093158100   -0.0000002700
  -0.0078586700    0.0093110100    0.0000001800
  -0.0078657300    0.0092992500    0.0000038400
  -0.0078663100    0.0093137900    0.0000040500
  -0.0078692700    0.0093350000   -0.0000048400
  -0.0078553200    0.0093188600   -0.0000061600
  -0.0078464100    0.0093049300   -0.0000010300
  -0.0078429900    0.0093127100    0.0000103600
  -0.0078627600    0.0093211600    0.0000064300
  -0.0078847000    0.0093123300   -0.0000021000
  -0.0078697300    0.0093110200   -0.0000005300
  -0.0078669300    0.0093108100    0.0000005500
  -0.0078628700    0.0093152700    0.0000008800
  -0.0078623600    0.0093134400   -0.0000006600
  -0.0078685800    0.0093155900   -0.0000003600
  -0.0078675600    0.0093195600   -0.0000008000
  -0.0078593000    0.0093042800    0.0000005500
  -0.0078609000    0.0092930200    0.0000105400
  -0.0078742200    0.0093134600    0.0000078800
  -0.0079057900    0.0093246000   -0.0000024000
  -0.0078659900    0.0093093500   -0.0000042200
  -0.0078534800    0.0093162300    0.0000003000
  -0.0078546000    0.0093155400    0.0000014200
  -0.0078640200    0.0093143500    0.0000005000
  -0.0076538100    0.0103167300   -0.0006305800
  -0.0075677100    0.0091539400    0.0000386700
  -0.0077706800    0.0093054700    0.0000040200
  -0.0077966300    0.0093333600   -0.0000048100
  -0.0078216400    0.0093216100    0.0000017700
  -0.0078888600    0.0093224000    0.0000012300
  -0.0078690200    0.0093180100    0.0000015800
  -0.0078577100    0.0093048200    0.0000008800
  -0.0078594000    0.0092697400   -0.0000051400
  -0.0077972200    0.0091736400   -0.0000165700
  -0.0079166400    0.0094299600    0.0000097100
  -0.0078454700    0.0093454800    0.0000167600
  -0.0077839100    0.0092548000    0.0000039200
  -0.0077606100    0.0093503200   -0.0000192300
  -0.0076582500    0.0093620900   -0.0000250400
  -0.0079883400    0.0093126600    0.0000042000
  -0.0078848500    0.0093106400    0.0000016400
  -0.0078590300    0.0093090700    0.0000013700
  -0.0078585600    0.0093072900    0.0000003800
  -0.0078499300    0.0092911700    0.0000031800
  -0.0078792000    0.0093384500    0.0000008800
  -0.0078648300    0.0093274400    0.0000015200
  -0.0078518100    0.0092790300    0.0000002100
  -0.0078640000    0.0091906000   -0.0000178600
  -0.0069379000    0.0086553300    0.0010314300
  -0.0087305200    0.0088607400   -0.0004181400
  -0.0079018700    0.0092947900    0.0000134400
  -0.0078483600    0.0093123300    0.0000002800
  -0.0078423700    0.0093179400   -0.0000000100
  -0.0078502700    0.0093115800    0.0000006500
   0.0088060200   -0.0099840200    0.0010597500
   0.0078676500   -0.0094360000   -0.0000197600
   0.0078771500   -0.0093440100   -0.0000012400
   0.0078617200   -0.0093011600   -0.0000000500
   0.0078426700   -0.0092881500   -0.0000002300
   0.0078765900   -0.0093171600   -0.0000007300
   0.0078890600   -0.0093145900   -0.0000013800
   0.0078784400   -0.0093154500   -0.0000012400
   0.0078251900   -0.0093359500    0.0000120700
   0.0069998800   -0.0097697000   -0.0004184300
   0.0080675300   -0.0092665500   -0.0000239500
   0.0079661600   -0.0092806000   -0.0000204000
   0.0079419500   -0.0093753600    0.0000019200
   0.0078923900   -0.0092869300    0.0000150400
   0.0078137000   -0.0091957100    0.0000079400
   0.0078808700   -0.0093289400    0.0000018100
   0.0078708400   -0.0093252600   -0.0000009300
   0.0078705700   -0.0093202700   -0.0000004600
   0.0078488800   -0.0093177000    0.0000000200
   0.0077453900   -0.0093148900    0.0000035800
   0.0079025900   -0.0093113900    0.0000009700
   0.0079288500   -0.0092975100   -0.0000063900
   0.0079577900   -0.0093266000    0.0000027200
   0.0081661300   -0.0094801700    0.0000417300
   0.0080732000   -0.0083227500   -0.0006229500
   0.0079276100   -0.0094531400   -0.0000161500
   0.0078722700   -0.0093535100   -0.0000067100
   0.0078653900   -0.0093273300   -0.0000007600
   0.0078576700   -0.0093157400   -0.0000001300
   0.0078350900   -0.0093070600    0.0000003400
   0.0078505600   -0.0093160100    0.0000062400
   0.0078703100   -0.0093336100    0.0000089500
   0.0078693000   -0.0093260500   -0.0000005800
   0.0078624900   -0.0093139300   -0.0000016200
   0.0078594400   -0.0093063300   -0.0000017800
   0.0078672300   -0.0093146900    0.0000000400
   0.0078699500   -0.0093170400    0.0000000300
   0.0078690500   -0.0093136300   -0.0000010600
   0.0078560800   -0.0093208000   -0.0000059900
   0.0078240700   -0.0093102600   -0.0000034500
   0.0078691200   -0.0093107300    0.0000044100
   0.0078918500   -0.0093133100    0.0000090100
   0.0078830400   -0.0093200400   -0.0000022700
   0.0078747400   -0.0093129200   -0.0000075700
   0.0078552100   -0.0092943300   -0.0000056800
   0.0078633600   -0.0093095500   -0.0000014200
   0.0078677300   -0.0093234100   -0.0000004500
   0.0078663100   -0.0093159500   -0.0000004000
   0.0078586100   -0.0093147200   -0.0000016600
   0.0078504900   -0.0093169300   -0.0000036600
   0.0078662200   -0.0093162600   -0.0000005100
   0.0078801300   -0.0093103200    0.0000027300
   0.0078805600   -0.0093168300   -0.0000026000
   0.0078705300   -0.0093146100   -0.0000090000
   0.0078382400   -0.0092945600   -0.0000056200
   0.0078604000   -0.0093137800    0.0000032700
   0.0078688000   -0.0093274100    0.0000028700
   0.0078636700   -0.0093233800   -0.0000001000
   0.0078649900   -0.0093134700   -0.0000013900
   0.0078601300   -0.0093098100   -0.0000011200
  -0.0083653600    0.0073297500    0.0010703700
  -0.0099041400    0.0066598400   -0.0001417800
  -0.0099332200    0.0067015000   -0.0000054100
  -0.0098842200    0.0065945500    0.0000069500
  -0.0098359800    0.0065295000    0.0000059000
  -0.0098273100    0.0066049600   -0.0000013700
  -0.0098460900    0.0065931500   -0.0000006400
  -0.0098584100    0.0066089400    0.0000002600
  -0.0098267700    0.0066243700    0.0000053200
  -0.0095780700    0.0066149500    0.0000547800
  -0.0098882200    0.0064635400    0.0000075100
  -0.0099211000    0.0065630200   -0.0000351000
  -0.0099783100    0.0066029100   -0.0000024700
  -0.0100442800    0.0066463300    0.0000235200
  -0.0097658100    0.0063725700    0.0000819100
  -0.0097648800    0.0066743300    0.0000147500
  -0.0098319600    0.0066131400   -0.0000032600
  -0.0098513000    0.0066051600   -0.0000000700
  -0.0098366700    0.0066026300    0.0000016900
  -0.0097807700    0.0066176400    0.0000038000
  -0.0098561100    0.0065698100   -0.0000019400