phonopy:
  version: "2.21.0"
  frequency_unit_conversion_factor: 15.633302
  symmetry_tolerance: 1.00000e-05
  configuration:
    band: "auto"
    dim: "5 5 0 -3 3 0 0 0 2"

physical_unit:
  atomic_mass: "AMU"
  length: "angstrom"
  force_constants: "eV/angstrom^2"

space_group:
  type: "P6_3/mmc"
  number: 194
  Hall_symbol: "-P 6c 2c"

primitive_matrix:
- [  1.000000000000000, -1.000000000000000,  0.000000000000000 ]
- [  1.000000000000000,  0.000000000000000,  0.000000000000000 ]
- [  0.000000000000000,  0.000000000000000,  1.000000000000000 ]

supercell_matrix:
- [   5,   5,   0 ]
- [  -3,   3,   0 ]
- [   0,   0,   2 ]

primitive_cell:
  lattice:
  - [     4.469307857574867,     0.000000000000000,     0.000000000000000 ] # a
  - [    -2.234653928787433,     3.870534141993237,     0.000000000000000 ] # b
  - [     0.000000000000000,     0.000000000000000,    10.175882521576616 ] # c
  points:
  - symbol: K  # 1
    coordinates: [  0.000000000000000,  0.000000000000000,  0.000000000000000 ]
    mass: 39.098300
  - symbol: K  # 2
    coordinates: [  0.000000000000000,  0.000000000000000,  0.500000000000000 ]
    mass: 39.098300
  - symbol: Cu # 3
    coordinates: [  0.666666666666665,  0.333333333333329,  0.750000000000000 ]
    mass: 63.546000
  - symbol: Cu # 4
    coordinates: [  0.333333333333336,  0.666666666666671,  0.250000000000000 ]
    mass: 63.546000
  - symbol: Te # 5
    coordinates: [  0.666666666666665,  0.333333333333329,  0.250000000000000 ]
    mass: 127.600000
  - symbol: Te # 6
    coordinates: [  0.333333333333336,  0.666666666666671,  0.750000000000000 ]
    mass: 127.600000
  reciprocal_lattice: # without 2pi
  - [     0.223748292099667,     0.129181136674462,     0.000000000000000 ] # a*
  - [    -0.000000000000000,     0.258362273348924,     0.000000000000000 ] # b*
  - [     0.000000000000000,     0.000000000000000,     0.098271574763135 ] # c*

unit_cell:
  lattice:
  - [     2.234653928787433,    -3.870534141993237,    -0.000000000000000 ] # a
  - [     2.234653928787433,     3.870534141993237,     0.000000000000000 ] # b
  - [     0.000000000000000,     0.000000000000000,    10.175882521576614 ] # c
  points:
  - symbol: K  # 1
    coordinates: [  0.000000000000000,  0.000000000000000,  0.000000000000000 ]
    mass: 39.098300
    reduced_to: 1
  - symbol: K  # 2
    coordinates: [  0.000000000000000,  0.000000000000000,  0.500000000000000 ]
    mass: 39.098300
    reduced_to: 2
  - symbol: Cu # 3
    coordinates: [  0.333333333333336,  0.666666666666664,  0.750000000000000 ]
    mass: 63.546000
    reduced_to: 3
  - symbol: Cu # 4
    coordinates: [  0.666666666666664,  0.333333333333336,  0.250000000000000 ]
    mass: 63.546000
    reduced_to: 4
  - symbol: Te # 5
    coordinates: [  0.333333333333336,  0.666666666666664,  0.250000000000000 ]
    mass: 127.600000
    reduced_to: 5
  - symbol: Te # 6
    coordinates: [  0.666666666666664,  0.333333333333336,  0.750000000000000 ]
    mass: 127.600000
    reduced_to: 6

supercell:
  lattice:
  - [     4.469307857574868,   -30.964273135945895,     0.000000000000000 ] # a
  - [    17.877231430299467,    -7.741068283986472,     0.000000000000000 ] # b
  - [     0.000000000000000,     0.000000000000000,    20.351765043153229 ] # c
  points:
  - symbol: K  # 1
    coordinates: [  0.000000000000000,  0.000000000000000,  0.000000000000000 ]
    mass: 39.098300
    reduced_to: 1
  - symbol: K  # 2
    coordinates: [  0.100000000000000,  0.100000000000000,  0.000000000000000 ]
    mass: 39.098300
    reduced_to: 1
  - symbol: K  # 3
    coordinates: [  0.200000000000000,  0.200000000000000,  0.000000000000000 ]
    mass: 39.098300
    reduced_to: 1
  - symbol: K  # 4
    coordinates: [  0.300000000000000,  0.300000000000000,  0.000000000000000 ]
    mass: 39.098300
    reduced_to: 1
  - symbol: K  # 5
    coordinates: [  0.400000000000000,  0.400000000000000,  0.000000000000000 ]
    mass: 39.098300
    reduced_to: 1
  - symbol: K  # 6
    coordinates: [  0.500000000000000,  0.500000000000000,  0.000000000000000 ]
    mass: 39.098300
    reduced_to: 1
  - symbol: K  # 7
    coordinates: [  0.600000000000000,  0.600000000000000,  0.000000000000000 ]
    mass: 39.098300
    reduced_to: 1
  - symbol: K  # 8
    coordinates: [  0.700000000000000,  0.700000000000000,  0.000000000000000 ]
    mass: 39.098300
    reduced_to: 1
  - symbol: K  # 9
    coordinates: [  0.800000000000000,  0.800000000000000,  0.000000000000000 ]
    mass: 39.098300
    reduced_to: 1
  - symbol: K  # 10
    coordinates: [  0.900000000000000,  0.900000000000000,  0.000000000000000 ]
    mass: 39.098300
    reduced_to: 1
  - symbol: K  # 11
    coordinates: [  0.833333333333333,  0.166666666666667,  0.000000000000000 ]
    mass: 39.098300
    reduced_to: 1
  - symbol: K  # 12
    coordinates: [  0.933333333333333,  0.266666666666667,  0.000000000000000 ]
    mass: 39.098300
    reduced_to: 1
  - symbol: K  # 13
    coordinates: [  0.033333333333333,  0.366666666666667,  0.000000000000000 ]
    mass: 39.098300
    reduced_to: 1
  - symbol: K  # 14
    coordinates: [  0.133333333333333,  0.466666666666667,  0.000000000000000 ]
    mass: 39.098300
    reduced_to: 1
  - symbol: K  # 15
    coordinates: [  0.233333333333333,  0.566666666666667,  0.000000000000000 ]
    mass: 39.098300
    reduced_to: 1
  - symbol: K  # 16
    coordinates: [  0.333333333333333,  0.666666666666667,  0.000000000000000 ]
    mass: 39.098300
    reduced_to: 1
  - symbol: K  # 17
    coordinates: [  0.433333333333333,  0.766666666666667,  0.000000000000000 ]
    mass: 39.098300
    reduced_to: 1
  - symbol: K  # 18
    coordinates: [  0.533333333333333,  0.866666666666667,  0.000000000000000 ]
    mass: 39.098300
    reduced_to: 1
  - symbol: K  # 19
    coordinates: [  0.633333333333333,  0.966666666666667,  0.000000000000000 ]
    mass: 39.098300
    reduced_to: 1
  - symbol: K  # 20
    coordinates: [  0.733333333333333,  0.066666666666667,  0.000000000000000 ]
    mass: 39.098300
    reduced_to: 1
  - symbol: K  # 21
    coordinates: [  0.666666666666667,  0.333333333333333,  0.000000000000000 ]
    mass: 39.098300
    reduced_to: 1
  - symbol: K  # 22
    coordinates: [  0.766666666666667,  0.433333333333333,  0.000000000000000 ]
    mass: 39.098300
    reduced_to: 1
  - symbol: K  # 23
    coordinates: [  0.866666666666667,  0.533333333333333,  0.000000000000000 ]
    mass: 39.098300
    reduced_to: 1
  - symbol: K  # 24
    coordinates: [  0.966666666666667,  0.633333333333333,  0.000000000000000 ]
    mass: 39.098300
    reduced_to: 1
  - symbol: K  # 25
    coordinates: [  0.066666666666667,  0.733333333333333,  0.000000000000000 ]
    mass: 39.098300
    reduced_to: 1
  - symbol: K  # 26
    coordinates: [  0.166666666666667,  0.833333333333333,  0.000000000000000 ]
    mass: 39.098300
    reduced_to: 1
  - symbol: K  # 27
    coordinates: [  0.266666666666667,  0.933333333333333,  0.000000000000000 ]
    mass: 39.098300
    reduced_to: 1
  - symbol: K  # 28
    coordinates: [  0.366666666666667,  0.033333333333333,  0.000000000000000 ]
    mass: 39.098300
    reduced_to: 1
  - symbol: K  # 29
    coordinates: [  0.466666666666667,  0.133333333333333,  0.000000000000000 ]
    mass: 39.098300
    reduced_to: 1
  - symbol: K  # 30
    coordinates: [  0.566666666666667,  0.233333333333333,  0.000000000000000 ]
    mass: 39.098300
    reduced_to: 1
  - symbol: K  # 31
    coordinates: [  0.000000000000000,  0.000000000000000,  0.500000000000000 ]
    mass: 39.098300
    reduced_to: 1
  - symbol: K  # 32
    coordinates: [  0.100000000000000,  0.100000000000000,  0.500000000000000 ]
    mass: 39.098300
    reduced_to: 1
  - symbol: K  # 33
    coordinates: [  0.200000000000000,  0.200000000000000,  0.500000000000000 ]
    mass: 39.098300
    reduced_to: 1
  - symbol: K  # 34
    coordinates: [  0.300000000000000,  0.300000000000000,  0.500000000000000 ]
    mass: 39.098300
    reduced_to: 1
  - symbol: K  # 35
    coordinates: [  0.400000000000000,  0.400000000000000,  0.500000000000000 ]
    mass: 39.098300
    reduced_to: 1
  - symbol: K  # 36
    coordinates: [  0.500000000000000,  0.500000000000000,  0.500000000000000 ]
    mass: 39.098300
    reduced_to: 1
  - symbol: K  # 37
    coordinates: [  0.600000000000000,  0.600000000000000,  0.500000000000000 ]
    mass: 39.098300
    reduced_to: 1
  - symbol: K  # 38
    coordinates: [  0.700000000000000,  0.700000000000000,  0.500000000000000 ]
    mass: 39.098300
    reduced_to: 1
  - symbol: K  # 39
    coordinates: [  0.800000000000000,  0.800000000000000,  0.500000000000000 ]
    mass: 39.098300
    reduced_to: 1
  - symbol: K  # 40
    coordinates: [  0.900000000000000,  0.900000000000000,  0.500000000000000 ]
    mass: 39.098300
    reduced_to: 1
  - symbol: K  # 41
    coordinates: [  0.833333333333333,  0.166666666666667,  0.500000000000000 ]
    mass: 39.098300
    reduced_to: 1
  - symbol: K  # 42
    coordinates: [  0.933333333333333,  0.266666666666667,  0.500000000000000 ]
    mass: 39.098300
    reduced_to: 1
  - symbol: K  # 43
    coordinates: [  0.033333333333333,  0.366666666666667,  0.500000000000000 ]
    mass: 39.098300
    reduced_to: 1
  - symbol: K  # 44
    coordinates: [  0.133333333333333,  0.466666666666667,  0.500000000000000 ]
    mass: 39.098300
    reduced_to: 1
  - symbol: K  # 45
    coordinates: [  0.233333333333333,  0.566666666666667,  0.500000000000000 ]
    mass: 39.098300
    reduced_to: 1
  - symbol: K  # 46
    coordinates: [  0.333333333333333,  0.666666666666667,  0.500000000000000 ]
    mass: 39.098300
    reduced_to: 1
  - symbol: K  # 47
    coordinates: [  0.433333333333333,  0.766666666666667,  0.500000000000000 ]
    mass: 39.098300
    reduced_to: 1
  - symbol: K  # 48
    coordinates: [  0.533333333333333,  0.866666666666667,  0.500000000000000 ]
    mass: 39.098300
    reduced_to: 1
  - symbol: K  # 49
    coordinates: [  0.633333333333333,  0.966666666666667,  0.500000000000000 ]
    mass: 39.098300
    reduced_to: 1
  - symbol: K  # 50
    coordinates: [  0.733333333333333,  0.066666666666667,  0.500000000000000 ]
    mass: 39.098300
    reduced_to: 1
  - symbol: K  # 51
    coordinates: [  0.666666666666667,  0.333333333333333,  0.500000000000000 ]
    mass: 39.098300
    reduced_to: 1
  - symbol: K  # 52
    coordinates: [  0.766666666666667,  0.433333333333333,  0.500000000000000 ]
    mass: 39.098300
    reduced_to: 1
  - symbol: K  # 53
    coordinates: [  0.866666666666667,  0.533333333333333,  0.500000000000000 ]
    mass: 39.098300
    reduced_to: 1
  - symbol: K  # 54
    coordinates: [  0.966666666666667,  0.633333333333333,  0.500000000000000 ]
    mass: 39.098300
    reduced_to: 1
  - symbol: K  # 55
    coordinates: [  0.066666666666667,  0.733333333333333,  0.500000000000000 ]
    mass: 39.098300
    reduced_to: 1
  - symbol: K  # 56
    coordinates: [  0.166666666666667,  0.833333333333333,  0.500000000000000 ]
    mass: 39.098300
    reduced_to: 1
  - symbol: K  # 57
    coordinates: [  0.266666666666667,  0.933333333333333,  0.500000000000000 ]
    mass: 39.098300
    reduced_to: 1
  - symbol: K  # 58
    coordinates: [  0.366666666666667,  0.033333333333333,  0.500000000000000 ]
    mass: 39.098300
    reduced_to: 1
  - symbol: K  # 59
    coordinates: [  0.466666666666667,  0.133333333333333,  0.500000000000000 ]
    mass: 39.098300
    reduced_to: 1
  - symbol: K  # 60
    coordinates: [  0.566666666666667,  0.233333333333333,  0.500000000000000 ]
    mass: 39.098300
    reduced_to: 1
  - symbol: K  # 61
    coordinates: [  0.000000000000000,  0.000000000000000,  0.250000000000000 ]
    mass: 39.098300
    reduced_to: 61
  - symbol: K  # 62
    coordinates: [  0.100000000000000,  0.100000000000000,  0.250000000000000 ]
    mass: 39.098300
    reduced_to: 61
  - symbol: K  # 63
    coordinates: [  0.200000000000000,  0.200000000000000,  0.250000000000000 ]
    mass: 39.098300
    reduced_to: 61
  - symbol: K  # 64
    coordinates: [  0.300000000000000,  0.300000000000000,  0.250000000000000 ]
    mass: 39.098300
    reduced_to: 61
  - symbol: K  # 65
    coordinates: [  0.400000000000000,  0.400000000000000,  0.250000000000000 ]
    mass: 39.098300
    reduced_to: 61
  - symbol: K  # 66
    coordinates: [  0.500000000000000,  0.500000000000000,  0.250000000000000 ]
    mass: 39.098300
    reduced_to: 61
  - symbol: K  # 67
    coordinates: [  0.600000000000000,  0.600000000000000,  0.250000000000000 ]
    mass: 39.098300
    reduced_to: 61
  - symbol: K  # 68
    coordinates: [  0.700000000000000,  0.700000000000000,  0.250000000000000 ]
    mass: 39.098300
    reduced_to: 61
  - symbol: K  # 69
    coordinates: [  0.800000000000000,  0.800000000000000,  0.250000000000000 ]
    mass: 39.098300
    reduced_to: 61
  - symbol: K  # 70
    coordinates: [  0.900000000000000,  0.900000000000000,  0.250000000000000 ]
    mass: 39.098300
    reduced_to: 61
  - symbol: K  # 71
    coordinates: [  0.833333333333333,  0.166666666666667,  0.250000000000000 ]
    mass: 39.098300
    reduced_to: 61
  - symbol: K  # 72
    coordinates: [  0.933333333333333,  0.266666666666667,  0.250000000000000 ]
    mass: 39.098300
    reduced_to: 61
  - symbol: K  # 73
    coordinates: [  0.033333333333333,  0.366666666666667,  0.250000000000000 ]
    mass: 39.098300
    reduced_to: 61
  - symbol: K  # 74
    coordinates: [  0.133333333333333,  0.466666666666667,  0.250000000000000 ]
    mass: 39.098300
    reduced_to: 61
  - symbol: K  # 75
    coordinates: [  0.233333333333333,  0.566666666666667,  0.250000000000000 ]
    mass: 39.098300
    reduced_to: 61
  - symbol: K  # 76
    coordinates: [  0.333333333333333,  0.666666666666667,  0.250000000000000 ]
    mass: 39.098300
    reduced_to: 61
  - symbol: K  # 77
    coordinates: [  0.433333333333333,  0.766666666666667,  0.250000000000000 ]
    mass: 39.098300
    reduced_to: 61
  - symbol: K  # 78
    coordinates: [  0.533333333333333,  0.866666666666667,  0.250000000000000 ]
    mass: 39.098300
    reduced_to: 61
  - symbol: K  # 79
    coordinates: [  0.633333333333333,  0.966666666666667,  0.250000000000000 ]
    mass: 39.098300
    reduced_to: 61
  - symbol: K  # 80
    coordinates: [  0.733333333333333,  0.066666666666667,  0.250000000000000 ]
    mass: 39.098300
    reduced_to: 61
  - symbol: K  # 81
    coordinates: [  0.666666666666667,  0.333333333333333,  0.250000000000000 ]
    mass: 39.098300
    reduced_to: 61
  - symbol: K  # 82
    coordinates: [  0.766666666666667,  0.433333333333333,  0.250000000000000 ]
    mass: 39.098300
    reduced_to: 61
  - symbol: K  # 83
    coordinates: [  0.866666666666667,  0.533333333333333,  0.250000000000000 ]
    mass: 39.098300
    reduced_to: 61
  - symbol: K  # 84
    coordinates: [  0.966666666666667,  0.633333333333333,  0.250000000000000 ]
    mass: 39.098300
    reduced_to: 61
  - symbol: K  # 85
    coordinates: [  0.066666666666667,  0.733333333333333,  0.250000000000000 ]
    mass: 39.098300
    reduced_to: 61
  - symbol: K  # 86
    coordinates: [  0.166666666666667,  0.833333333333333,  0.250000000000000 ]
    mass: 39.098300
    reduced_to: 61
  - symbol: K  # 87
    coordinates: [  0.266666666666667,  0.933333333333333,  0.250000000000000 ]
    mass: 39.098300
    reduced_to: 61
  - symbol: K  # 88
    coordinates: [  0.366666666666667,  0.033333333333333,  0.250000000000000 ]
    mass: 39.098300
    reduced_to: 61
  - symbol: K  # 89
    coordinates: [  0.466666666666667,  0.133333333333333,  0.250000000000000 ]
    mass: 39.098300
    reduced_to: 61
  - symbol: K  # 90
    coordinates: [  0.566666666666667,  0.233333333333333,  0.250000000000000 ]
    mass: 39.098300
    reduced_to: 61
  - symbol: K  # 91
    coordinates: [  0.000000000000000,  0.000000000000000,  0.750000000000000 ]
    mass: 39.098300
    reduced_to: 61
  - symbol: K  # 92
    coordinates: [  0.100000000000000,  0.100000000000000,  0.750000000000000 ]
    mass: 39.098300
    reduced_to: 61
  - symbol: K  # 93
    coordinates: [  0.200000000000000,  0.200000000000000,  0.750000000000000 ]
    mass: 39.098300
    reduced_to: 61
  - symbol: K  # 94
    coordinates: [  0.300000000000000,  0.300000000000000,  0.750000000000000 ]
    mass: 39.098300
    reduced_to: 61
  - symbol: K  # 95
    coordinates: [  0.400000000000000,  0.400000000000000,  0.750000000000000 ]
    mass: 39.098300
    reduced_to: 61
  - symbol: K  # 96
    coordinates: [  0.500000000000000,  0.500000000000000,  0.750000000000000 ]
    mass: 39.098300
    reduced_to: 61
  - symbol: K  # 97
    coordinates: [  0.600000000000000,  0.600000000000000,  0.750000000000000 ]
    mass: 39.098300
    reduced_to: 61
  - symbol: K  # 98
    coordinates: [  0.700000000000000,  0.700000000000000,  0.750000000000000 ]
    mass: 39.098300
    reduced_to: 61
  - symbol: K  # 99
    coordinates: [  0.800000000000000,  0.800000000000000,  0.750000000000000 ]
    mass: 39.098300
    reduced_to: 61
  - symbol: K  # 100
    coordinates: [  0.900000000000000,  0.900000000000000,  0.750000000000000 ]
    mass: 39.098300
    reduced_to: 61
  - symbol: K  # 101
    coordinates: [  0.833333333333333,  0.166666666666667,  0.750000000000000 ]
    mass: 39.098300
    reduced_to: 61
  - symbol: K  # 102
    coordinates: [  0.933333333333333,  0.266666666666667,  0.750000000000000 ]
    mass: 39.098300
    reduced_to: 61
  - symbol: K  # 103
    coordinates: [  0.033333333333333,  0.366666666666667,  0.750000000000000 ]
    mass: 39.098300
    reduced_to: 61
  - symbol: K  # 104
    coordinates: [  0.133333333333333,  0.466666666666667,  0.750000000000000 ]
    mass: 39.098300
    reduced_to: 61
  - symbol: K  # 105
    coordinates: [  0.233333333333333,  0.566666666666667,  0.750000000000000 ]
    mass: 39.098300
    reduced_to: 61
  - symbol: K  # 106
    coordinates: [  0.333333333333333,  0.666666666666667,  0.750000000000000 ]
    mass: 39.098300
    reduced_to: 61
  - symbol: K  # 107
    coordinates: [  0.433333333333333,  0.766666666666667,  0.750000000000000 ]
    mass: 39.098300
    reduced_to: 61
  - symbol: K  # 108
    coordinates: [  0.533333333333333,  0.866666666666667,  0.750000000000000 ]
    mass: 39.098300
    reduced_to: 61
  - symbol: K  # 109
    coordinates: [  0.633333333333333,  0.966666666666667,  0.750000000000000 ]
    mass: 39.098300
    reduced_to: 61
  - symbol: K  # 110
    coordinates: [  0.733333333333333,  0.066666666666667,  0.750000000000000 ]
    mass: 39.098300
    reduced_to: 61
  - symbol: K  # 111
    coordinates: [  0.666666666666667,  0.333333333333333,  0.750000000000000 ]
    mass: 39.098300
    reduced_to: 61
  - symbol: K  # 112
    coordinates: [  0.766666666666667,  0.433333333333333,  0.750000000000000 ]
    mass: 39.098300
    reduced_to: 61
  - symbol: K  # 113
    coordinates: [  0.866666666666667,  0.533333333333333,  0.750000000000000 ]
    mass: 39.098300
    reduced_to: 61
  - symbol: K  # 114
    coordinates: [  0.966666666666667,  0.633333333333333,  0.750000000000000 ]
    mass: 39.098300
    reduced_to: 61
  - symbol: K  # 115
    coordinates: [  0.066666666666667,  0.733333333333333,  0.750000000000000 ]
    mass: 39.098300
    reduced_to: 61
  - symbol: K  # 116
    coordinates: [  0.166666666666667,  0.833333333333333,  0.750000000000000 ]
    mass: 39.098300
    reduced_to: 61
  - symbol: K  # 117
    coordinates: [  0.266666666666667,  0.933333333333333,  0.750000000000000 ]
    mass: 39.098300
    reduced_to: 61
  - symbol: K  # 118
    coordinates: [  0.366666666666667,  0.033333333333333,  0.750000000000000 ]
    mass: 39.098300
    reduced_to: 61
  - symbol: K  # 119
    coordinates: [  0.466666666666667,  0.133333333333333,  0.750000000000000 ]
    mass: 39.098300
    reduced_to: 61
  - symbol: K  # 120
    coordinates: [  0.566666666666667,  0.233333333333333,  0.750000000000000 ]
    mass: 39.098300
    reduced_to: 61
  - symbol: Cu # 121
    coordinates: [  0.922222222222223,  0.144444444444444,  0.375000000000000 ]
    mass: 63.546000
    reduced_to: 121
  - symbol: Cu # 122
    coordinates: [  0.022222222222223,  0.244444444444444,  0.375000000000000 ]
    mass: 63.546000
    reduced_to: 121
  - symbol: Cu # 123
    coordinates: [  0.122222222222223,  0.344444444444444,  0.375000000000000 ]
    mass: 63.546000
    reduced_to: 121
  - symbol: Cu # 124
    coordinates: [  0.222222222222223,  0.444444444444444,  0.375000000000000 ]
    mass: 63.546000
    reduced_to: 121
  - symbol: Cu # 125
    coordinates: [  0.322222222222223,  0.544444444444444,  0.375000000000000 ]
    mass: 63.546000
    reduced_to: 121
  - symbol: Cu # 126
    coordinates: [  0.422222222222223,  0.644444444444444,  0.375000000000000 ]
    mass: 63.546000
    reduced_to: 121
  - symbol: Cu # 127
    coordinates: [  0.522222222222223,  0.744444444444444,  0.375000000000000 ]
    mass: 63.546000
    reduced_to: 121
  - symbol: Cu # 128
    coordinates: [  0.622222222222223,  0.844444444444444,  0.375000000000000 ]
    mass: 63.546000
    reduced_to: 121
  - symbol: Cu # 129
    coordinates: [  0.722222222222223,  0.944444444444444,  0.375000000000000 ]
    mass: 63.546000
    reduced_to: 121
  - symbol: Cu # 130
    coordinates: [  0.822222222222223,  0.044444444444444,  0.375000000000000 ]
    mass: 63.546000
    reduced_to: 121
  - symbol: Cu # 131
    coordinates: [  0.755555555555556,  0.311111111111111,  0.375000000000000 ]
    mass: 63.546000
    reduced_to: 121
  - symbol: Cu # 132
    coordinates: [  0.855555555555556,  0.411111111111111,  0.375000000000000 ]
    mass: 63.546000
    reduced_to: 121
  - symbol: Cu # 133
    coordinates: [  0.955555555555556,  0.511111111111111,  0.375000000000000 ]
    mass: 63.546000
    reduced_to: 121
  - symbol: Cu # 134
    coordinates: [  0.055555555555556,  0.611111111111111,  0.375000000000000 ]
    mass: 63.546000
    reduced_to: 121
  - symbol: Cu # 135
    coordinates: [  0.155555555555556,  0.711111111111111,  0.375000000000000 ]
    mass: 63.546000
    reduced_to: 121
  - symbol: Cu # 136
    coordinates: [  0.255555555555556,  0.811111111111111,  0.375000000000000 ]
    mass: 63.546000
    reduced_to: 121
  - symbol: Cu # 137
    coordinates: [  0.355555555555556,  0.911111111111111,  0.375000000000000 ]
    mass: 63.546000
    reduced_to: 121
  - symbol: Cu # 138
    coordinates: [  0.455555555555556,  0.011111111111111,  0.375000000000000 ]
    mass: 63.546000
    reduced_to: 121
  - symbol: Cu # 139
    coordinates: [  0.555555555555556,  0.111111111111111,  0.375000000000000 ]
    mass: 63.546000
    reduced_to: 121
  - symbol: Cu # 140
    coordinates: [  0.655555555555556,  0.211111111111111,  0.375000000000000 ]
    mass: 63.546000
    reduced_to: 121
  - symbol: Cu # 141
    coordinates: [  0.588888888888889,  0.477777777777778,  0.375000000000000 ]
    mass: 63.546000
    reduced_to: 121
  - symbol: Cu # 142
    coordinates: [  0.688888888888890,  0.577777777777778,  0.375000000000000 ]
    mass: 63.546000
    reduced_to: 121
  - symbol: Cu # 143
    coordinates: [  0.788888888888890,  0.677777777777778,  0.375000000000000 ]
    mass: 63.546000
    reduced_to: 121
  - symbol: Cu # 144
    coordinates: [  0.888888888888890,  0.777777777777778,  0.375000000000000 ]
    mass: 63.546000
    reduced_to: 121
  - symbol: Cu # 145
    coordinates: [  0.988888888888890,  0.877777777777778,  0.375000000000000 ]
    mass: 63.546000
    reduced_to: 121
  - symbol: Cu # 146
    coordinates: [  0.088888888888890,  0.977777777777778,  0.375000000000000 ]
    mass: 63.546000
    reduced_to: 121
  - symbol: Cu # 147
    coordinates: [  0.188888888888890,  0.077777777777778,  0.375000000000000 ]
    mass: 63.546000
    reduced_to: 121
  - symbol: Cu # 148
    coordinates: [  0.288888888888890,  0.177777777777778,  0.375000000000000 ]
    mass: 63.546000
    reduced_to: 121
  - symbol: Cu # 149
    coordinates: [  0.388888888888890,  0.277777777777778,  0.375000000000000 ]
    mass: 63.546000
    reduced_to: 121
  - symbol: Cu # 150
    coordinates: [  0.488888888888890,  0.377777777777778,  0.375000000000000 ]
    mass: 63.546000
    reduced_to: 121
  - symbol: Cu # 151
    coordinates: [  0.922222222222223,  0.144444444444444,  0.875000000000000 ]
    mass: 63.546000
    reduced_to: 121
  - symbol: Cu # 152
    coordinates: [  0.022222222222223,  0.244444444444444,  0.875000000000000 ]
    mass: 63.546000
    reduced_to: 121
  - symbol: Cu # 153
    coordinates: [  0.122222222222223,  0.344444444444444,  0.875000000000000 ]
    mass: 63.546000
    reduced_to: 121
  - symbol: Cu # 154
    coordinates: [  0.222222222222223,  0.444444444444444,  0.875000000000000 ]
    mass: 63.546000
    reduced_to: 121
  - symbol: Cu # 155
    coordinates: [  0.322222222222223,  0.544444444444444,  0.875000000000000 ]
    mass: 63.546000
    reduced_to: 121
  - symbol: Cu # 156
    coordinates: [  0.422222222222223,  0.644444444444444,  0.875000000000000 ]
    mass: 63.546000
    reduced_to: 121
  - symbol: Cu # 157
    coordinates: [  0.522222222222223,  0.744444444444444,  0.875000000000000 ]
    mass: 63.546000
    reduced_to: 121
  - symbol: Cu # 158
    coordinates: [  0.622222222222223,  0.844444444444444,  0.875000000000000 ]
    mass: 63.546000
    reduced_to: 121
  - symbol: Cu # 159
    coordinates: [  0.722222222222223,  0.944444444444444,  0.875000000000000 ]
    mass: 63.546000
    reduced_to: 121
  - symbol: Cu # 160
    coordinates: [  0.822222222222223,  0.044444444444444,  0.875000000000000 ]
    mass: 63.546000
    reduced_to: 121
  - symbol: Cu # 161
    coordinates: [  0.755555555555556,  0.311111111111111,  0.875000000000000 ]
    mass: 63.546000
    reduced_to: 121
  - symbol: Cu # 162
    coordinates: [  0.855555555555556,  0.411111111111111,  0.875000000000000 ]
    mass: 63.546000
    reduced_to: 121
  - symbol: Cu # 163
    coordinates: [  0.955555555555556,  0.511111111111111,  0.875000000000000 ]
    mass: 63.546000
    reduced_to: 121
  - symbol: Cu # 164
    coordinates: [  0.055555555555556,  0.611111111111111,  0.875000000000000 ]
    mass: 63.546000
    reduced_to: 121
  - symbol: Cu # 165
    coordinates: [  0.155555555555556,  0.711111111111111,  0.875000000000000 ]
    mass: 63.546000
    reduced_to: 121
  - symbol: Cu # 166
    coordinates: [  0.255555555555556,  0.811111111111111,  0.875000000000000 ]
    mass: 63.546000
    reduced_to: 121
  - symbol: Cu # 167
    coordinates: [  0.355555555555556,  0.911111111111111,  0.875000000000000 ]
    mass: 63.546000
    reduced_to: 121
  - symbol: Cu # 168
    coordinates: [  0.455555555555556,  0.011111111111111,  0.875000000000000 ]
    mass: 63.546000
    reduced_to: 121
  - symbol: Cu # 169
    coordinates: [  0.555555555555556,  0.111111111111111,  0.875000000000000 ]
    mass: 63.546000
    reduced_to: 121
  - symbol: Cu # 170
    coordinates: [  0.655555555555556,  0.211111111111111,  0.875000000000000 ]
    mass: 63.546000
    reduced_to: 121
  - symbol: Cu # 171
    coordinates: [  0.588888888888889,  0.477777777777778,  0.875000000000000 ]
    mass: 63.546000
    reduced_to: 121
  - symbol: Cu # 172
    coordinates: [  0.688888888888890,  0.577777777777778,  0.875000000000000 ]
    mass: 63.546000
    reduced_to: 121
  - symbol: Cu # 173
    coordinates: [  0.788888888888890,  0.677777777777778,  0.875000000000000 ]
    mass: 63.546000
    reduced_to: 121
  - symbol: Cu # 174
    coordinates: [  0.888888888888890,  0.777777777777778,  0.875000000000000 ]
    mass: 63.546000
    reduced_to: 121
  - symbol: Cu # 175
    coordinates: [  0.988888888888890,  0.877777777777778,  0.875000000000000 ]
    mass: 63.546000
    reduced_to: 121
  - symbol: Cu # 176
    coordinates: [  0.088888888888890,  0.977777777777778,  0.875000000000000 ]
    mass: 63.546000
    reduced_to: 121
  - symbol: Cu # 177
    coordinates: [  0.188888888888890,  0.077777777777778,  0.875000000000000 ]
    mass: 63.546000
    reduced_to: 121
  - symbol: Cu # 178
    coordinates: [  0.288888888888890,  0.177777777777778,  0.875000000000000 ]
    mass: 63.546000
    reduced_to: 121
  - symbol: Cu # 179
    coordinates: [  0.388888888888890,  0.277777777777778,  0.875000000000000 ]
    mass: 63.546000
    reduced_to: 121
  - symbol: Cu # 180
    coordinates: [  0.488888888888890,  0.377777777777778,  0.875000000000000 ]
    mass: 63.546000
    reduced_to: 121
  - symbol: Cu # 181
    coordinates: [  0.011111111111110,  0.122222222222222,  0.125000000000000 ]
    mass: 63.546000
    reduced_to: 181
  - symbol: Cu # 182
    coordinates: [  0.111111111111110,  0.222222222222222,  0.125000000000000 ]
    mass: 63.546000
    reduced_to: 181
  - symbol: Cu # 183
    coordinates: [  0.211111111111110,  0.322222222222222,  0.125000000000000 ]
    mass: 63.546000
    reduced_to: 181
  - symbol: Cu # 184
    coordinates: [  0.311111111111111,  0.422222222222222,  0.125000000000000 ]
    mass: 63.546000
    reduced_to: 181
  - symbol: Cu # 185
    coordinates: [  0.411111111111110,  0.522222222222222,  0.125000000000000 ]
    mass: 63.546000
    reduced_to: 181
  - symbol: Cu # 186
    coordinates: [  0.511111111111111,  0.622222222222222,  0.125000000000000 ]
    mass: 63.546000
    reduced_to: 181
  - symbol: Cu # 187
    coordinates: [  0.611111111111111,  0.722222222222222,  0.125000000000000 ]
    mass: 63.546000
    reduced_to: 181
  - symbol: Cu # 188
    coordinates: [  0.711111111111111,  0.822222222222222,  0.125000000000000 ]
    mass: 63.546000
    reduced_to: 181
  - symbol: Cu # 189
    coordinates: [  0.811111111111111,  0.922222222222222,  0.125000000000000 ]
    mass: 63.546000
    reduced_to: 181
  - symbol: Cu # 190
    coordinates: [  0.911111111111111,  0.022222222222222,  0.125000000000000 ]
    mass: 63.546000
    reduced_to: 181
  - symbol: Cu # 191
    coordinates: [  0.844444444444444,  0.288888888888889,  0.125000000000000 ]
    mass: 63.546000
    reduced_to: 181
  - symbol: Cu # 192