phonopy:
  version: "2.21.0"
  frequency_unit_conversion_factor: 15.633302
  symmetry_tolerance: 1.00000e-04

space_group:
  type: "I4_1md"
  number: 109
  Hall_symbol: "I 4bw -2"

primitive_matrix:
- [ -0.500000000000000,  0.500000000000000,  0.500000000000000 ]
- [  0.500000000000000, -0.500000000000000,  0.500000000000000 ]
- [  0.500000000000000,  0.500000000000000, -0.500000000000000 ]

supercell_matrix:
- [   3,   0,   0 ]
- [   0,   3,   0 ]
- [   0,   0,   2 ]

primitive_cell:
  lattice:
  - [    -3.716367174851659,     3.716367174851659,     5.507220229101141 ] # a
  - [     3.716367174851661,    -3.716367174851658,     5.507220229101141 ] # b
  - [     3.716367174851659,     3.716367174851658,    -5.507220229101141 ] # c
  points:
  - symbol: Ga # 1
    coordinates: [  0.651452245198732,  0.426236816641541,  0.225215428557190 ]
    mass: 69.723000
  - symbol: Ga # 2
    coordinates: [  0.176236816641535,  0.451021388084344,  0.274784571442810 ]
    mass: 69.723000
  - symbol: Ga # 3
    coordinates: [  0.176236816641535,  0.901452245198725,  0.725215428557190 ]
    mass: 69.723000
  - symbol: Ga # 4
    coordinates: [  0.201021388084351,  0.426236816641541,  0.774784571442810 ]
    mass: 69.723000
  - symbol: Te # 5
    coordinates: [  0.030720528611318,  0.030720528611318,  1.000000000000000 ]
    mass: 127.600000
  - symbol: Te # 6
    coordinates: [  0.780720528611318,  0.280720528611318,  0.500000000000000 ]
    mass: 127.600000
  - symbol: Se # 7
    coordinates: [  0.900841778438629,  0.648903419052804,  0.251938359385825 ]
    mass: 78.960000
  - symbol: Se # 8
    coordinates: [  0.398903419052804,  0.646965059666979,  0.248061640614175 ]
    mass: 78.960000
  - symbol: Se # 9
    coordinates: [  0.398903419052804,  0.150841778438628,  0.751938359385825 ]
    mass: 78.960000
  - symbol: Se # 10
    coordinates: [  0.396965059666979,  0.648903419052804,  0.748061640614175 ]
    mass: 78.960000
  reciprocal_lattice: # without 2pi
  - [    -0.000000000000000,     0.134539989316303,     0.090789904743215 ] # a*
  - [     0.134539989316303,     0.000000000000000,     0.090789904743215 ] # b*
  - [     0.134539989316303,     0.134539989316303,    -0.000000000000000 ] # c*

unit_cell:
  lattice:
  - [     7.432734349703320,     0.000000000000000,     0.000000000000000 ] # a
  - [    -0.000000000000000,     7.432734349703320,     0.000000000000000 ] # b
  - [    -0.000000000000000,     0.000000000000000,    11.014440458202280 ] # c
  points:
  - symbol: Ga # 1
    coordinates: [  0.000000000000000,  0.225215428557190,  0.426236816641542 ]
    mass: 69.723000
    reduced_to: 1
  - symbol: Ga # 2
    coordinates: [  0.274784571442810,  0.000000000000000,  0.176236816641535 ]
    mass: 69.723000
    reduced_to: 2
  - symbol: Ga # 3
    coordinates: [  0.725215428557190,  0.000000000000000,  0.176236816641535 ]
    mass: 69.723000
    reduced_to: 3
  - symbol: Ga # 4
    coordinates: [  0.000000000000000,  0.774784571442810,  0.426236816641542 ]
    mass: 69.723000
    reduced_to: 4
  - symbol: Ga # 5
    coordinates: [  0.500000000000000,  0.725215428557190,  0.926236816641534 ]
    mass: 69.723000
    reduced_to: 1
  - symbol: Ga # 6
    coordinates: [  0.774784571442810,  0.500000000000000,  0.676236816641534 ]
    mass: 69.723000
    reduced_to: 2
  - symbol: Ga # 7
    coordinates: [  0.225215428557190,  0.500000000000000,  0.676236816641534 ]
    mass: 69.723000
    reduced_to: 3
  - symbol: Ga # 8
    coordinates: [  0.500000000000000,  0.274784571442810,  0.926236816641534 ]
    mass: 69.723000
    reduced_to: 4
  - symbol: Te # 9
    coordinates: [  0.000000000000000,  0.000000000000000,  0.030720528611318 ]
    mass: 127.600000
    reduced_to: 9
  - symbol: Te # 10
    coordinates: [  0.000000000000000,  0.500000000000000,  0.280720528611318 ]
    mass: 127.600000
    reduced_to: 10
  - symbol: Te # 11
    coordinates: [  0.500000000000000,  0.500000000000000,  0.530720528611318 ]
    mass: 127.600000
    reduced_to: 9
  - symbol: Te # 12
    coordinates: [  0.500000000000000,  0.000000000000000,  0.780720528611318 ]
    mass: 127.600000
    reduced_to: 10
  - symbol: Se # 13
    coordinates: [  0.500000000000000,  0.751938359385825,  0.148903419052804 ]
    mass: 78.960000
    reduced_to: 13
  - symbol: Se # 14
    coordinates: [  0.248061640614175,  0.000000000000000,  0.398903419052804 ]
    mass: 78.960000
    reduced_to: 14
  - symbol: Se # 15
    coordinates: [  0.751938359385825,  0.000000000000000,  0.398903419052804 ]
    mass: 78.960000
    reduced_to: 15
  - symbol: Se # 16
    coordinates: [  0.500000000000000,  0.248061640614175,  0.148903419052804 ]
    mass: 78.960000
    reduced_to: 16
  - symbol: Se # 17
    coordinates: [  0.000000000000000,  0.251938359385825,  0.648903419052804 ]
    mass: 78.960000
    reduced_to: 13
  - symbol: Se # 18
    coordinates: [  0.748061640614175,  0.500000000000000,  0.898903419052804 ]
    mass: 78.960000
    reduced_to: 14
  - symbol: Se # 19
    coordinates: [  0.251938359385825,  0.500000000000000,  0.898903419052804 ]
    mass: 78.960000
    reduced_to: 15
  - symbol: Se # 20
    coordinates: [  0.000000000000000,  0.748061640614175,  0.648903419052804 ]
    mass: 78.960000
    reduced_to: 16

supercell:
  lattice:
  - [    22.298203049109958,     0.000000000000000,     0.000000000000001 ] # a
  - [    -0.000000000000001,    22.298203049109958,     0.000000000000001 ] # b
  - [     0.000000000000000,     0.000000000000000,    22.028880916404560 ] # c
  points:
  - symbol: Ga # 1
    coordinates: [  0.000000000000000,  0.075071809519063,  0.213118408320771 ]
    mass: 69.723000
    reduced_to: 1
  - symbol: Ga # 2
    coordinates: [  0.333333333333333,  0.075071809519063,  0.213118408320771 ]
    mass: 69.723000
    reduced_to: 1
  - symbol: Ga # 3
    coordinates: [  0.666666666666667,  0.075071809519063,  0.213118408320771 ]
    mass: 69.723000
    reduced_to: 1
  - symbol: Ga # 4
    coordinates: [  0.000000000000000,  0.408405142852397,  0.213118408320771 ]
    mass: 69.723000
    reduced_to: 1
  - symbol: Ga # 5
    coordinates: [  0.333333333333333,  0.408405142852397,  0.213118408320771 ]
    mass: 69.723000
    reduced_to: 1
  - symbol: Ga # 6
    coordinates: [  0.666666666666667,  0.408405142852397,  0.213118408320771 ]
    mass: 69.723000
    reduced_to: 1
  - symbol: Ga # 7
    coordinates: [  0.000000000000000,  0.741738476185730,  0.213118408320771 ]
    mass: 69.723000
    reduced_to: 1
  - symbol: Ga # 8
    coordinates: [  0.333333333333333,  0.741738476185730,  0.213118408320771 ]
    mass: 69.723000
    reduced_to: 1
  - symbol: Ga # 9
    coordinates: [  0.666666666666667,  0.741738476185730,  0.213118408320771 ]
    mass: 69.723000
    reduced_to: 1
  - symbol: Ga # 10
    coordinates: [  0.000000000000000,  0.075071809519063,  0.713118408320771 ]
    mass: 69.723000
    reduced_to: 1
  - symbol: Ga # 11
    coordinates: [  0.333333333333333,  0.075071809519063,  0.713118408320771 ]
    mass: 69.723000
    reduced_to: 1
  - symbol: Ga # 12
    coordinates: [  0.666666666666667,  0.075071809519063,  0.713118408320771 ]
    mass: 69.723000
    reduced_to: 1
  - symbol: Ga # 13
    coordinates: [  0.000000000000000,  0.408405142852397,  0.713118408320771 ]
    mass: 69.723000
    reduced_to: 1
  - symbol: Ga # 14
    coordinates: [  0.333333333333333,  0.408405142852397,  0.713118408320771 ]
    mass: 69.723000
    reduced_to: 1
  - symbol: Ga # 15
    coordinates: [  0.666666666666667,  0.408405142852397,  0.713118408320771 ]
    mass: 69.723000
    reduced_to: 1
  - symbol: Ga # 16
    coordinates: [  0.000000000000000,  0.741738476185730,  0.713118408320771 ]
    mass: 69.723000
    reduced_to: 1
  - symbol: Ga # 17
    coordinates: [  0.333333333333333,  0.741738476185730,  0.713118408320771 ]
    mass: 69.723000
    reduced_to: 1
  - symbol: Ga # 18
    coordinates: [  0.666666666666667,  0.741738476185730,  0.713118408320771 ]
    mass: 69.723000
    reduced_to: 1
  - symbol: Ga # 19
    coordinates: [  0.091594857147603,  0.000000000000000,  0.088118408320767 ]
    mass: 69.723000
    reduced_to: 19
  - symbol: Ga # 20
    coordinates: [  0.424928190480937,  0.000000000000000,  0.088118408320767 ]
    mass: 69.723000
    reduced_to: 19
  - symbol: Ga # 21
    coordinates: [  0.758261523814270,  0.000000000000000,  0.088118408320767 ]
    mass: 69.723000
    reduced_to: 19
  - symbol: Ga # 22
    coordinates: [  0.091594857147603,  0.333333333333333,  0.088118408320767 ]
    mass: 69.723000
    reduced_to: 19
  - symbol: Ga # 23
    coordinates: [  0.424928190480937,  0.333333333333333,  0.088118408320767 ]
    mass: 69.723000
    reduced_to: 19
  - symbol: Ga # 24
    coordinates: [  0.758261523814270,  0.333333333333333,  0.088118408320767 ]
    mass: 69.723000
    reduced_to: 19
  - symbol: Ga # 25
    coordinates: [  0.091594857147603,  0.666666666666667,  0.088118408320767 ]
    mass: 69.723000
    reduced_to: 19
  - symbol: Ga # 26
    coordinates: [  0.424928190480937,  0.666666666666667,  0.088118408320767 ]
    mass: 69.723000
    reduced_to: 19
  - symbol: Ga # 27
    coordinates: [  0.758261523814270,  0.666666666666667,  0.088118408320767 ]
    mass: 69.723000
    reduced_to: 19
  - symbol: Ga # 28
    coordinates: [  0.091594857147603,  0.000000000000000,  0.588118408320767 ]
    mass: 69.723000
    reduced_to: 19
  - symbol: Ga # 29
    coordinates: [  0.424928190480937,  0.000000000000000,  0.588118408320767 ]
    mass: 69.723000
    reduced_to: 19
  - symbol: Ga # 30
    coordinates: [  0.758261523814270,  0.000000000000000,  0.588118408320767 ]
    mass: 69.723000
    reduced_to: 19
  - symbol: Ga # 31
    coordinates: [  0.091594857147603,  0.333333333333333,  0.588118408320767 ]
    mass: 69.723000
    reduced_to: 19
  - symbol: Ga # 32
    coordinates: [  0.424928190480937,  0.333333333333333,  0.588118408320767 ]
    mass: 69.723000
    reduced_to: 19
  - symbol: Ga # 33
    coordinates: [  0.758261523814270,  0.333333333333333,  0.588118408320767 ]
    mass: 69.723000
    reduced_to: 19
  - symbol: Ga # 34
    coordinates: [  0.091594857147603,  0.666666666666667,  0.588118408320767 ]
    mass: 69.723000
    reduced_to: 19
  - symbol: Ga # 35
    coordinates: [  0.424928190480937,  0.666666666666667,  0.588118408320767 ]
    mass: 69.723000
    reduced_to: 19
  - symbol: Ga # 36
    coordinates: [  0.758261523814270,  0.666666666666667,  0.588118408320767 ]
    mass: 69.723000
    reduced_to: 19
  - symbol: Ga # 37
    coordinates: [  0.241738476185730,  0.000000000000000,  0.088118408320767 ]
    mass: 69.723000
    reduced_to: 37
  - symbol: Ga # 38
    coordinates: [  0.575071809519063,  0.000000000000000,  0.088118408320767 ]
    mass: 69.723000
    reduced_to: 37
  - symbol: Ga # 39
    coordinates: [  0.908405142852397,  0.000000000000000,  0.088118408320767 ]
    mass: 69.723000
    reduced_to: 37
  - symbol: Ga # 40
    coordinates: [  0.241738476185730,  0.333333333333333,  0.088118408320767 ]
    mass: 69.723000
    reduced_to: 37
  - symbol: Ga # 41
    coordinates: [  0.575071809519063,  0.333333333333333,  0.088118408320767 ]
    mass: 69.723000
    reduced_to: 37
  - symbol: Ga # 42
    coordinates: [  0.908405142852397,  0.333333333333333,  0.088118408320767 ]
    mass: 69.723000
    reduced_to: 37
  - symbol: Ga # 43
    coordinates: [  0.241738476185730,  0.666666666666667,  0.088118408320767 ]
    mass: 69.723000
    reduced_to: 37
  - symbol: Ga # 44
    coordinates: [  0.575071809519063,  0.666666666666667,  0.088118408320767 ]
    mass: 69.723000
    reduced_to: 37
  - symbol: Ga # 45
    coordinates: [  0.908405142852397,  0.666666666666667,  0.088118408320767 ]
    mass: 69.723000
    reduced_to: 37
  - symbol: Ga # 46
    coordinates: [  0.241738476185730,  0.000000000000000,  0.588118408320767 ]
    mass: 69.723000
    reduced_to: 37
  - symbol: Ga # 47
    coordinates: [  0.575071809519063,  0.000000000000000,  0.588118408320767 ]
    mass: 69.723000
    reduced_to: 37
  - symbol: Ga # 48
    coordinates: [  0.908405142852397,  0.000000000000000,  0.588118408320767 ]
    mass: 69.723000
    reduced_to: 37
  - symbol: Ga # 49
    coordinates: [  0.241738476185730,  0.333333333333333,  0.588118408320767 ]
    mass: 69.723000
    reduced_to: 37
  - symbol: Ga # 50
    coordinates: [  0.575071809519063,  0.333333333333333,  0.588118408320767 ]
    mass: 69.723000
    reduced_to: 37
  - symbol: Ga # 51
    coordinates: [  0.908405142852397,  0.333333333333333,  0.588118408320767 ]
    mass: 69.723000
    reduced_to: 37
  - symbol: Ga # 52
    coordinates: [  0.241738476185730,  0.666666666666667,  0.588118408320767 ]
    mass: 69.723000
    reduced_to: 37
  - symbol: Ga # 53
    coordinates: [  0.575071809519063,  0.666666666666667,  0.588118408320767 ]
    mass: 69.723000
    reduced_to: 37
  - symbol: Ga # 54
    coordinates: [  0.908405142852397,  0.666666666666667,  0.588118408320767 ]
    mass: 69.723000
    reduced_to: 37
  - symbol: Ga # 55
    coordinates: [  0.000000000000000,  0.258261523814270,  0.213118408320771 ]
    mass: 69.723000
    reduced_to: 55
  - symbol: Ga # 56
    coordinates: [  0.333333333333333,  0.258261523814270,  0.213118408320771 ]
    mass: 69.723000
    reduced_to: 55
  - symbol: Ga # 57
    coordinates: [  0.666666666666667,  0.258261523814270,  0.213118408320771 ]
    mass: 69.723000
    reduced_to: 55
  - symbol: Ga # 58
    coordinates: [  0.000000000000000,  0.591594857147603,  0.213118408320771 ]
    mass: 69.723000
    reduced_to: 55
  - symbol: Ga # 59
    coordinates: [  0.333333333333333,  0.591594857147603,  0.213118408320771 ]
    mass: 69.723000
    reduced_to: 55
  - symbol: Ga # 60
    coordinates: [  0.666666666666667,  0.591594857147603,  0.213118408320771 ]
    mass: 69.723000
    reduced_to: 55
  - symbol: Ga # 61
    coordinates: [  0.000000000000000,  0.924928190480936,  0.213118408320771 ]
    mass: 69.723000
    reduced_to: 55
  - symbol: Ga # 62
    coordinates: [  0.333333333333333,  0.924928190480936,  0.213118408320771 ]
    mass: 69.723000
    reduced_to: 55
  - symbol: Ga # 63
    coordinates: [  0.666666666666667,  0.924928190480936,  0.213118408320771 ]
    mass: 69.723000
    reduced_to: 55
  - symbol: Ga # 64
    coordinates: [  0.000000000000000,  0.258261523814270,  0.713118408320771 ]
    mass: 69.723000
    reduced_to: 55
  - symbol: Ga # 65
    coordinates: [  0.333333333333333,  0.258261523814270,  0.713118408320771 ]
    mass: 69.723000
    reduced_to: 55
  - symbol: Ga # 66
    coordinates: [  0.666666666666667,  0.258261523814270,  0.713118408320771 ]
    mass: 69.723000
    reduced_to: 55
  - symbol: Ga # 67
    coordinates: [  0.000000000000000,  0.591594857147603,  0.713118408320771 ]
    mass: 69.723000
    reduced_to: 55
  - symbol: Ga # 68
    coordinates: [  0.333333333333333,  0.591594857147603,  0.713118408320771 ]
    mass: 69.723000
    reduced_to: 55
  - symbol: Ga # 69
    coordinates: [  0.666666666666667,  0.591594857147603,  0.713118408320771 ]
    mass: 69.723000
    reduced_to: 55
  - symbol: Ga # 70
    coordinates: [  0.000000000000000,  0.924928190480936,  0.713118408320771 ]
    mass: 69.723000
    reduced_to: 55
  - symbol: Ga # 71
    coordinates: [  0.333333333333333,  0.924928190480936,  0.713118408320771 ]
    mass: 69.723000
    reduced_to: 55
  - symbol: Ga # 72
    coordinates: [  0.666666666666667,  0.924928190480936,  0.713118408320771 ]
    mass: 69.723000
    reduced_to: 55
  - symbol: Ga # 73
    coordinates: [  0.166666666666667,  0.241738476185730,  0.463118408320767 ]
    mass: 69.723000
    reduced_to: 1
  - symbol: Ga # 74
    coordinates: [  0.500000000000000,  0.241738476185730,  0.463118408320767 ]
    mass: 69.723000
    reduced_to: 1
  - symbol: Ga # 75
    coordinates: [  0.833333333333333,  0.241738476185730,  0.463118408320767 ]
    mass: 69.723000
    reduced_to: 1
  - symbol: Ga # 76
    coordinates: [  0.166666666666667,  0.575071809519063,  0.463118408320767 ]
    mass: 69.723000
    reduced_to: 1
  - symbol: Ga # 77
    coordinates: [  0.500000000000000,  0.575071809519063,  0.463118408320767 ]
    mass: 69.723000
    reduced_to: 1
  - symbol: Ga # 78
    coordinates: [  0.833333333333333,  0.575071809519063,  0.463118408320767 ]
    mass: 69.723000
    reduced_to: 1
  - symbol: Ga # 79
    coordinates: [  0.166666666666667,  0.908405142852397,  0.463118408320767 ]
    mass: 69.723000
    reduced_to: 1
  - symbol: Ga # 80
    coordinates: [  0.500000000000000,  0.908405142852397,  0.463118408320767 ]
    mass: 69.723000
    reduced_to: 1
  - symbol: Ga # 81
    coordinates: [  0.833333333333333,  0.908405142852397,  0.463118408320767 ]
    mass: 69.723000
    reduced_to: 1
  - symbol: Ga # 82
    coordinates: [  0.166666666666667,  0.241738476185730,  0.963118408320767 ]
    mass: 69.723000
    reduced_to: 1
  - symbol: Ga # 83
    coordinates: [  0.500000000000000,  0.241738476185730,  0.963118408320767 ]
    mass: 69.723000
    reduced_to: 1
  - symbol: Ga # 84
    coordinates: [  0.833333333333333,  0.241738476185730,  0.963118408320767 ]
    mass: 69.723000
    reduced_to: 1
  - symbol: Ga # 85
    coordinates: [  0.166666666666667,  0.575071809519063,  0.963118408320767 ]
    mass: 69.723000
    reduced_to: 1
  - symbol: Ga # 86
    coordinates: [  0.500000000000000,  0.575071809519063,  0.963118408320767 ]
    mass: 69.723000
    reduced_to: 1
  - symbol: Ga # 87
    coordinates: [  0.833333333333333,  0.575071809519063,  0.963118408320767 ]
    mass: 69.723000
    reduced_to: 1
  - symbol: Ga # 88
    coordinates: [  0.166666666666667,  0.908405142852397,  0.963118408320767 ]
    mass: 69.723000
    reduced_to: 1
  - symbol: Ga # 89
    coordinates: [  0.500000000000000,  0.908405142852397,  0.963118408320767 ]
    mass: 69.723000
    reduced_to: 1
  - symbol: Ga # 90
    coordinates: [  0.833333333333333,  0.908405142852397,  0.963118408320767 ]
    mass: 69.723000
    reduced_to: 1
  - symbol: Ga # 91
    coordinates: [  0.258261523814270,  0.166666666666667,  0.338118408320767 ]
    mass: 69.723000
    reduced_to: 19
  - symbol: Ga # 92
    coordinates: [  0.591594857147603,  0.166666666666667,  0.338118408320767 ]
    mass: 69.723000
    reduced_to: 19
  - symbol: Ga # 93
    coordinates: [  0.924928190480936,  0.166666666666667,  0.338118408320767 ]
    mass: 69.723000
    reduced_to: 19
  - symbol: Ga # 94
    coordinates: [  0.258261523814270,  0.500000000000000,  0.338118408320767 ]
    mass: 69.723000
    reduced_to: 19
  - symbol: Ga # 95
    coordinates: [  0.591594857147603,  0.500000000000000,  0.338118408320767 ]
    mass: 69.723000
    reduced_to: 19
  - symbol: Ga # 96
    coordinates: [  0.924928190480936,  0.500000000000000,  0.338118408320767 ]
    mass: 69.723000
    reduced_to: 19
  - symbol: Ga # 97
    coordinates: [  0.258261523814270,  0.833333333333333,  0.338118408320767 ]
    mass: 69.723000
    reduced_to: 19
  - symbol: Ga # 98
    coordinates: [  0.591594857147603,  0.833333333333333,  0.338118408320767 ]
    mass: 69.723000
    reduced_to: 19
  - symbol: Ga # 99
    coordinates: [  0.924928190480936,  0.833333333333333,  0.338118408320767 ]
    mass: 69.723000
    reduced_to: 19
  - symbol: Ga # 100
    coordinates: [  0.258261523814270,  0.166666666666667,  0.838118408320767 ]
    mass: 69.723000
    reduced_to: 19
  - symbol: Ga # 101
    coordinates: [  0.591594857147603,  0.166666666666667,  0.838118408320767 ]
    mass: 69.723000
    reduced_to: 19
  - symbol: Ga # 102
    coordinates: [  0.924928190480936,  0.166666666666667,  0.838118408320767 ]
    mass: 69.723000
    reduced_to: 19
  - symbol: Ga # 103
    coordinates: [  0.258261523814270,  0.500000000000000,  0.838118408320767 ]
    mass: 69.723000
    reduced_to: 19
  - symbol: Ga # 104
    coordinates: [  0.591594857147603,  0.500000000000000,  0.838118408320767 ]
    mass: 69.723000
    reduced_to: 19
  - symbol: Ga # 105
    coordinates: [  0.924928190480936,  0.500000000000000,  0.838118408320767 ]
    mass: 69.723000
    reduced_to: 19
  - symbol: Ga # 106
    coordinates: [  0.258261523814270,  0.833333333333333,  0.838118408320767 ]
    mass: 69.723000
    reduced_to: 19
  - symbol: Ga # 107
    coordinates: [  0.591594857147603,  0.833333333333333,  0.838118408320767 ]
    mass: 69.723000
    reduced_to: 19
  - symbol: Ga # 108
    coordinates: [  0.924928190480936,  0.833333333333333,  0.838118408320767 ]
    mass: 69.723000
    reduced_to: 19
  - symbol: Ga # 109
    coordinates: [  0.075071809519063,  0.166666666666667,  0.338118408320767 ]
    mass: 69.723000
    reduced_to: 37
  - symbol: Ga # 110
    coordinates: [  0.408405142852397,  0.166666666666667,  0.338118408320767 ]
    mass: 69.723000
    reduced_to: 37
  - symbol: Ga # 111
    coordinates: [  0.741738476185730,  0.166666666666667,  0.338118408320767 ]
    mass: 69.723000
    reduced_to: 37
  - symbol: Ga # 112
    coordinates: [  0.075071809519063,  0.500000000000000,  0.338118408320767 ]
    mass: 69.723000
    reduced_to: 37
  - symbol: Ga # 113
    coordinates: [  0.408405142852397,  0.500000000000000,  0.338118408320767 ]
    mass: 69.723000
    reduced_to: 37
  - symbol: Ga # 114
    coordinates: [  0.741738476185730,  0.500000000000000,  0.338118408320767 ]
    mass: 69.723000
    reduced_to: 37
  - symbol: Ga # 115
    coordinates: [  0.075071809519063,  0.833333333333333,  0.338118408320767 ]
    mass: 69.723000
    reduced_to: 37
  - symbol: Ga # 116
    coordinates: [  0.408405142852397,  0.833333333333333,  0.338118408320767 ]
    mass: 69.723000
    reduced_to: 37
  - symbol: Ga # 117
    coordinates: [  0.741738476185730,  0.833333333333333,  0.338118408320767 ]
    mass: 69.723000
    reduced_to: 37
  - symbol: Ga # 118
    coordinates: [  0.075071809519063,  0.166666666666667,  0.838118408320767 ]
    mass: 69.723000
    reduced_to: 37
  - symbol: Ga # 119
    coordinates: [  0.408405142852397,  0.166666666666667,  0.838118408320767 ]
    mass: 69.723000
    reduced_to: 37
  - symbol: Ga # 120
    coordinates: [  0.741738476185730,  0.166666666666667,  0.838118408320767 ]
    mass: 69.723000
    reduced_to: 37
  - symbol: Ga # 121
    coordinates: [  0.075071809519063,  0.500000000000000,  0.838118408320767 ]
    mass: 69.723000
    reduced_to: 37
  - symbol: Ga # 122
    coordinates: [  0.408405142852397,  0.500000000000000,  0.838118408320767 ]
    mass: 69.723000
    reduced_to: 37
  - symbol: Ga # 123
    coordinates: [  0.741738476185730,  0.500000000000000,  0.838118408320767 ]
    mass: 69.723000
    reduced_to: 37
  - symbol: Ga # 124
    coordinates: [  0.075071809519063,  0.833333333333333,  0.838118408320767 ]
    mass: 69.723000
    reduced_to: 37
  - symbol: Ga # 125
    coordinates: [  0.408405142852397,  0.833333333333333,  0.838118408320767 ]
    mass: 69.723000
    reduced_to: 37
  - symbol: Ga # 126
    coordinates: [  0.741738476185730,  0.833333333333333,  0.838118408320767 ]
    mass: 69.723000
    reduced_to: 37
  - symbol: Ga # 127
    coordinates: [  0.166666666666667,  0.091594857147603,  0.463118408320767 ]
    mass: 69.723000
    reduced_to: 55
  - symbol: Ga # 128
    coordinates: [  0.500000000000000,  0.091594857147603,  0.463118408320767 ]
    mass: 69.723000
    reduced_to: 55
  - symbol: Ga # 129
    coordinates: [  0.833333333333333,  0.091594857147603,  0.463118408320767 ]
    mass: 69.723000
    reduced_to: 55
  - symbol: Ga # 130
    coordinates: [  0.166666666666667,  0.424928190480937,  0.463118408320767 ]
    mass: 69.723000
    reduced_to: 55
  - symbol: Ga # 131
    coordinates: [  0.500000000000000,  0.424928190480937,  0.463118408320767 ]
    mass: 69.723000
    reduced_to: 55
  - symbol: Ga # 132
    coordinates: [  0.833333333333333,  0.424928190480937,  0.463118408320767 ]
    mass: 69.723000
    reduced_to: 55
  - symbol: Ga # 133
    coordinates: [  0.166666666666667,  0.758261523814270,  0.463118408320767 ]
    mass: 69.723000
    reduced_to: 55
  - symbol: Ga # 134
    coordinates: [  0.500000000000000,  0.758261523814270,  0.463118408320767 ]
    mass: 69.723000
    reduced_to: 55
  - symbol: Ga # 135
    coordinates: [  0.833333333333333,  0.758261523814270,  0.463118408320767 ]
    mass: 69.723000
    reduced_to: 55
  - symbol: Ga # 136
    coordinates: [  0.166666666666667,  0.091594857147603,  0.963118408320767 ]
    mass: 69.723000
    reduced_to: 55
  - symbol: Ga # 137
    coordinates: [  0.500000000000000,  0.091594857147603,  0.963118408320767 ]
    mass: 69.723000
    reduced_to: 55
  - symbol: Ga # 138
    coordinates: [  0.833333333333333,  0.091594857147603,  0.963118408320767 ]
    mass: 69.723000
    reduced_to: 55
  - symbol: Ga # 139
    coordinates: [  0.166666666666667,  0.424928190480937,  0.963118408320767 ]
    mass: 69.723000
    reduced_to: 55
  - symbol: Ga # 140
    coordinates: [  0.500000000000000,  0.424928190480937,  0.963118408320767 ]
    mass: 69.723000
    reduced_to: 55
  - symbol: Ga # 141
    coordinates: [  0.833333333333333,  0.424928190480937,  0.963118408320767 ]
    mass: 69.723000
    reduced_to: 55
  - symbol: Ga # 142
    coordinates: [  0.166666666666667,  0.758261523814270,  0.963118408320767 ]
    mass: 69.723000
    reduced_to: 55
  - symbol: Ga # 143
    coordinates: [  0.500000000000000,  0.758261523814270,  0.963118408320767 ]
    mass: 69.723000
    reduced_to: 55
  - symbol: Ga # 144
    coordinates: [  0.833333333333333,  0.758261523814270,  0.963118408320767 ]
    mass: 69.723000
    reduced_to: 55
  - symbol: Te # 145
    coordinates: [  0.000000000000000,  0.000000000000000,  0.015360264305659 ]
    mass: 127.600000
    reduced_to: 145
  - symbol: Te # 146
    coordinates: [  0.333333333333333,  0.000000000000000,  0.015360264305659 ]
    mass: 127.600000
    reduced_to: 145
  - symbol: Te # 147
    coordinates: [  0.666666666666667,  0.000000000000000,  0.015360264305659 ]
    mass: 127.600000
    reduced_to: 145
  - symbol: Te # 148
    coordinates: [  0.000000000000000,  0.333333333333333,  0.015360264305659 ]
    mass: 127.600000
    reduced_to: 145
  - symbol: Te # 149
    coordinates: [  0.333333333333333,  0.333333333333333,  0.015360264305659 ]
    mass: 127.600000
    reduced_to: 145
  - symbol: Te # 150
    coordinates: [  0.666666666666667,  0.333333333333333,  0.015360264305659 ]
    mass: 127.600000
    reduced_to: 145
  - symbol: Te # 151
    coordinates: [  0.000000000000000,  0.666666666666667,  0.015360264305659 ]
    mass: 127.600000
    reduced_to: 145
  - symbol: Te # 152
    coordinates: [  0.333333333333333,  0.666666666666667,  0.015360264305659 ]
    mass: 127.600000
    reduced_to: 145
  - symbol: Te # 153
    coordinates: [  0.666666666666667,  0.666666666666667,  0.015360264305659 ]
    mass: 127.600000
    reduced_to: 145
  - symbol: Te # 154
    coordinates: [  0.000000000000000,  0.000000000000000,  0.515360264305659 ]
    mass: 127.600000
    reduced_to: 145
  - symbol: Te # 155
    coordinates: [  0.333333333333333,  0.000000000000000,  0.515360264305659 ]
    mass: 127.600000
    reduced_to: 145
  - symbol: Te # 156
    coordinates: [  0.666666666666667,  0.000000000000000,  0.515360264305659 ]
    mass: 127.600000
    reduced_to: 145
  - symbol: Te # 157
    coordinates: [  0.000000000000000,  0.333333333333333,  0.515360264305659 ]
    mass: 127.600000
    reduced_to: 145
  - symbol: Te # 158
    coordinates: [  0.333333333333333,  0.333333333333333,  0.515360264305659 ]
    mass: 127.600000
    reduced_to: 145
  - symbol: Te # 159
    coordinates: [  0.666666666666667,  0.333333333333333,  0.515360264305659 ]
    mass: 127.600000
    reduced_to: 145
  - symbol: Te # 160
    coordinates: [  0.000000000000000,  0.666666666666667,  0.515360264305659 ]
    mass: 127.600000
    reduced_to: 145
  - symbol: Te # 161
    coordinates: [  0.333333333333333,  0.666666666666667,  0.515360264305659 ]
    mass: 127.600000
    reduced_to: 145
  - symbol: Te # 162
    coordinates: [  0.666666666666667,  0.666666666666667,  0.515360264305659 ]
    mass: 127.600000
    reduced_to: 145
  - symbol: Te # 163
    coordinates: [  0.000000000000000,  0.166666666666667,  0.140360264305659 ]
    mass: 127.600000
    reduced_to: 163
  - symbol: Te # 164
    coordinates: [  0.333333333333333,  0.166666666666667,  0.140360264305659 ]
    mass: 127.600000
    reduced_to: 163
  - symbol: Te # 165
    coordinates: [  0.666666666666667,  0.166666666666667,  0.140360264305659 ]
    mass: 127.600000
    reduced_to: 163
  - symbol: Te # 166
    coordinates: [  0.000000000000000,  0.500000000000000,  0.140360264305659 ]
    mass: 127.600000
    reduced_to: 163
  - symbol: Te # 167
    coordinates: [  0.333333333333333,  0.500000000000000,  0.140360264305659 ]
    mass: 127.600000
    reduced_to: 163
  - symbol: Te # 168
    coordinates: [  0.666666666666667,  0.500000000000000,  0.140360264305659 ]
    mass: 127.600000
    reduced_to: 163
  - symbol: Te # 169
    coordinates: [  0.000000000000000,  0.833333333333333,  0.140360264305659 ]
    mass: 127.600000
    reduced_to: 163
  - symbol: Te # 170
    coordinates: [  0.333333333333333,  0.833333333333333,  0.140360264305659 ]
    mass: 127.600000
    reduced_to: 163
  - symbol: Te # 171
    coordinates: [  0.666666666666667,  0.833333333333333,  0.140360264305659 ]
    mass: 127.600000
    reduced_to: 163
  - symbol: Te # 172
    coordinates: [  0.000000000000000,  0.166666666666667,  0.640360264305659 ]
    mass: 127.600000
    reduced_to: 163
  - symbol: Te # 173
    coordinates: [  0.333333333333333,  0.166666666666667,  0.640360264305659 ]
    mass: 127.600000
    reduced_to: 163
  - symbol: Te # 174
    coordinates: [  0.666666666666667,  0.166666666666667,  0.640360264305659 ]
    mass: 127.600000
    reduced_to: 163
  - symbol: Te # 175
    coordinates: [  0.000000000000000,  0.500000000000000,  0.640360264305659 ]
    mass: 127.600000
    reduced_to: 163
  - symbol: Te # 176