phonopy:
  version: "2.27.0"
  frequency_unit_conversion_factor: 15.633302
  symmetry_tolerance: 1.00000e-04

space_group:
  type: "P2_1/m"
  number: 11
  Hall_symbol: "-P 2yb"

primitive_matrix:
- [  1.000000000000000,  0.000000000000000, -0.000000000000000 ]
- [  0.000000000000000,  1.000000000000000, -0.000000000000000 ]
- [  0.000000000000000,  0.000000000000000,  1.000000000000000 ]

supercell_matrix:
- [   0,   4,   0 ]
- [   5,   0,   0 ]
- [   0,   0,  -4 ]

primitive_cell:
  lattice:
  - [    -0.000000000003029,     4.198199000308765,    -0.439166262394056 ] # a
  - [     5.902686242463353,    -0.000000000004056,     0.000000000000469 ] # b
  - [     0.000000000000960,    -0.614408625663228,    -5.870622334114052 ] # c
  points:
  - symbol: Ag # 1
    coordinates: [  0.999999995467599,  0.999999982154428,  0.000000013544426 ]
    mass: 107.868200
  - symbol: Ag # 2
    coordinates: [  0.000000005225144,  0.500000009783228,  0.499999986161129 ]
    mass: 107.868200
  - symbol: Ag # 3
    coordinates: [  0.999999995270485,  0.000000009371800,  0.500000014310548 ]
    mass: 107.868200
  - symbol: Ag # 4
    coordinates: [  0.000000004585148,  0.499999982239417,  0.999999986336551 ]
    mass: 107.868200
  - symbol: S  # 5
    coordinates: [  0.696250491524544,  0.249999998225254,  0.249990291789855 ]
    mass: 32.065000
  - symbol: S  # 6
    coordinates: [  0.303749507927086,  0.749999998225808,  0.750009707857437 ]
    mass: 32.065000
  reciprocal_lattice: # without 2pi
  - [     0.000000000000164,     0.235617809931780,    -0.024659330228200 ] # a*
  - [     0.169414391841819,     0.000000000000124,     0.000000000000015 ] # b*
  - [     0.000000000000001,    -0.017625966558932,    -0.168494990448030 ] # c*

unit_cell:
  lattice:
  - [    -0.000000000003029,     4.198199000308765,    -0.439166262394056 ] # a
  - [     5.902686242463353,    -0.000000000004056,     0.000000000000469 ] # b
  - [     0.000000000000960,    -0.614408625663228,    -5.870622334114052 ] # c
  points:
  - symbol: Ag # 1
    coordinates: [  0.999999995467599,  0.999999982154428,  0.000000013544426 ]
    mass: 107.868200
    reduced_to: 1
  - symbol: Ag # 2
    coordinates: [  0.000000005225144,  0.500000009783228,  0.499999986161128 ]
    mass: 107.868200
    reduced_to: 2
  - symbol: Ag # 3
    coordinates: [  0.999999995270485,  0.000000009371800,  0.500000014310548 ]
    mass: 107.868200
    reduced_to: 3
  - symbol: Ag # 4
    coordinates: [  0.000000004585148,  0.499999982239417,  0.999999986336551 ]
    mass: 107.868200
    reduced_to: 4
  - symbol: S  # 5
    coordinates: [  0.696250491524544,  0.249999998225254,  0.249990291789855 ]
    mass: 32.065000
    reduced_to: 5
  - symbol: S  # 6
    coordinates: [  0.303749507927086,  0.749999998225808,  0.750009707857437 ]
    mass: 32.065000
    reduced_to: 6

supercell:
  lattice:
  - [    29.513431212316764,    -0.000000000020282,     0.000000000002345 ] # a
  - [    -0.000000000012116,    16.792796001235061,    -1.756665049576223 ] # b
  - [    -0.000000000003840,     2.457634502652910,    23.482489336456208 ] # c
  points:
  - symbol: Ag # 1
    coordinates: [  0.199999996430886,  0.249999998866900,  0.999999996613893 ]
    mass: 107.868200
    reduced_to: 1
  - symbol: Ag # 2
    coordinates: [  0.199999996430886,  0.499999998866900,  0.999999996613893 ]
    mass: 107.868200
    reduced_to: 1
  - symbol: Ag # 3
    coordinates: [  0.199999996430886,  0.749999998866900,  0.999999996613893 ]
    mass: 107.868200
    reduced_to: 1
  - symbol: Ag # 4
    coordinates: [  0.199999996430886,  0.999999998866900,  0.999999996613893 ]
    mass: 107.868200
    reduced_to: 1
  - symbol: Ag # 5
    coordinates: [  0.399999996430886,  0.249999998866900,  0.999999996613893 ]
    mass: 107.868200
    reduced_to: 1
  - symbol: Ag # 6
    coordinates: [  0.399999996430886,  0.499999998866900,  0.999999996613893 ]
    mass: 107.868200
    reduced_to: 1
  - symbol: Ag # 7
    coordinates: [  0.399999996430886,  0.749999998866900,  0.999999996613893 ]
    mass: 107.868200
    reduced_to: 1
  - symbol: Ag # 8
    coordinates: [  0.399999996430886,  0.999999998866900,  0.999999996613893 ]
    mass: 107.868200
    reduced_to: 1
  - symbol: Ag # 9
    coordinates: [  0.599999996430886,  0.249999998866900,  0.999999996613893 ]
    mass: 107.868200
    reduced_to: 1
  - symbol: Ag # 10
    coordinates: [  0.599999996430886,  0.499999998866900,  0.999999996613893 ]
    mass: 107.868200
    reduced_to: 1
  - symbol: Ag # 11
    coordinates: [  0.599999996430886,  0.749999998866900,  0.999999996613893 ]
    mass: 107.868200
    reduced_to: 1
  - symbol: Ag # 12
    coordinates: [  0.599999996430886,  0.999999998866900,  0.999999996613893 ]
    mass: 107.868200
    reduced_to: 1
  - symbol: Ag # 13
    coordinates: [  0.799999996430886,  0.249999998866900,  0.999999996613893 ]
    mass: 107.868200
    reduced_to: 1
  - symbol: Ag # 14
    coordinates: [  0.799999996430886,  0.499999998866900,  0.999999996613893 ]
    mass: 107.868200
    reduced_to: 1
  - symbol: Ag # 15
    coordinates: [  0.799999996430886,  0.749999998866900,  0.999999996613893 ]
    mass: 107.868200
    reduced_to: 1
  - symbol: Ag # 16
    coordinates: [  0.799999996430886,  0.999999998866900,  0.999999996613893 ]
    mass: 107.868200
    reduced_to: 1
  - symbol: Ag # 17
    coordinates: [  0.999999996430886,  0.249999998866900,  0.999999996613893 ]
    mass: 107.868200
    reduced_to: 1
  - symbol: Ag # 18
    coordinates: [  0.999999996430886,  0.499999998866900,  0.999999996613893 ]
    mass: 107.868200
    reduced_to: 1
  - symbol: Ag # 19
    coordinates: [  0.999999996430886,  0.749999998866900,  0.999999996613893 ]
    mass: 107.868200
    reduced_to: 1
  - symbol: Ag # 20
    coordinates: [  0.999999996430886,  0.999999998866900,  0.999999996613893 ]
    mass: 107.868200
    reduced_to: 1
  - symbol: Ag # 21
    coordinates: [  0.199999996430886,  0.249999998866900,  0.749999996613893 ]
    mass: 107.868200
    reduced_to: 1
  - symbol: Ag # 22
    coordinates: [  0.199999996430886,  0.499999998866900,  0.749999996613893 ]
    mass: 107.868200
    reduced_to: 1
  - symbol: Ag # 23
    coordinates: [  0.199999996430886,  0.749999998866900,  0.749999996613893 ]
    mass: 107.868200
    reduced_to: 1
  - symbol: Ag # 24
    coordinates: [  0.199999996430886,  0.999999998866900,  0.749999996613893 ]
    mass: 107.868200
    reduced_to: 1
  - symbol: Ag # 25
    coordinates: [  0.399999996430886,  0.249999998866900,  0.749999996613893 ]
    mass: 107.868200
    reduced_to: 1
  - symbol: Ag # 26
    coordinates: [  0.399999996430886,  0.499999998866900,  0.749999996613893 ]
    mass: 107.868200
    reduced_to: 1
  - symbol: Ag # 27
    coordinates: [  0.399999996430886,  0.749999998866900,  0.749999996613893 ]
    mass: 107.868200
    reduced_to: 1
  - symbol: Ag # 28
    coordinates: [  0.399999996430886,  0.999999998866900,  0.749999996613893 ]
    mass: 107.868200
    reduced_to: 1
  - symbol: Ag # 29
    coordinates: [  0.599999996430886,  0.249999998866900,  0.749999996613893 ]
    mass: 107.868200
    reduced_to: 1
  - symbol: Ag # 30
    coordinates: [  0.599999996430886,  0.499999998866900,  0.749999996613893 ]
    mass: 107.868200
    reduced_to: 1
  - symbol: Ag # 31
    coordinates: [  0.599999996430886,  0.749999998866900,  0.749999996613893 ]
    mass: 107.868200
    reduced_to: 1
  - symbol: Ag # 32
    coordinates: [  0.599999996430886,  0.999999998866900,  0.749999996613893 ]
    mass: 107.868200
    reduced_to: 1
  - symbol: Ag # 33
    coordinates: [  0.799999996430886,  0.249999998866900,  0.749999996613893 ]
    mass: 107.868200
    reduced_to: 1
  - symbol: Ag # 34
    coordinates: [  0.799999996430886,  0.499999998866900,  0.749999996613893 ]
    mass: 107.868200
    reduced_to: 1
  - symbol: Ag # 35
    coordinates: [  0.799999996430886,  0.749999998866900,  0.749999996613893 ]
    mass: 107.868200
    reduced_to: 1
  - symbol: Ag # 36
    coordinates: [  0.799999996430886,  0.999999998866900,  0.749999996613893 ]
    mass: 107.868200
    reduced_to: 1
  - symbol: Ag # 37
    coordinates: [  0.999999996430886,  0.249999998866900,  0.749999996613893 ]
    mass: 107.868200
    reduced_to: 1
  - symbol: Ag # 38
    coordinates: [  0.999999996430886,  0.499999998866900,  0.749999996613893 ]
    mass: 107.868200
    reduced_to: 1
  - symbol: Ag # 39
    coordinates: [  0.999999996430886,  0.749999998866900,  0.749999996613893 ]
    mass: 107.868200
    reduced_to: 1
  - symbol: Ag # 40
    coordinates: [  0.999999996430886,  0.999999998866900,  0.749999996613893 ]
    mass: 107.868200
    reduced_to: 1
  - symbol: Ag # 41
    coordinates: [  0.199999996430886,  0.249999998866900,  0.499999996613893 ]
    mass: 107.868200
    reduced_to: 1
  - symbol: Ag # 42
    coordinates: [  0.199999996430886,  0.499999998866900,  0.499999996613893 ]
    mass: 107.868200
    reduced_to: 1
  - symbol: Ag # 43
    coordinates: [  0.199999996430886,  0.749999998866900,  0.499999996613893 ]
    mass: 107.868200
    reduced_to: 1
  - symbol: Ag # 44
    coordinates: [  0.199999996430886,  0.999999998866900,  0.499999996613893 ]
    mass: 107.868200
    reduced_to: 1
  - symbol: Ag # 45
    coordinates: [  0.399999996430886,  0.249999998866900,  0.499999996613893 ]
    mass: 107.868200
    reduced_to: 1
  - symbol: Ag # 46
    coordinates: [  0.399999996430886,  0.499999998866900,  0.499999996613893 ]
    mass: 107.868200
    reduced_to: 1
  - symbol: Ag # 47
    coordinates: [  0.399999996430886,  0.749999998866900,  0.499999996613893 ]
    mass: 107.868200
    reduced_to: 1
  - symbol: Ag # 48
    coordinates: [  0.399999996430886,  0.999999998866900,  0.499999996613893 ]
    mass: 107.868200
    reduced_to: 1
  - symbol: Ag # 49
    coordinates: [  0.599999996430886,  0.249999998866900,  0.499999996613893 ]
    mass: 107.868200
    reduced_to: 1
  - symbol: Ag # 50
    coordinates: [  0.599999996430886,  0.499999998866900,  0.499999996613893 ]
    mass: 107.868200
    reduced_to: 1
  - symbol: Ag # 51
    coordinates: [  0.599999996430886,  0.749999998866900,  0.499999996613893 ]
    mass: 107.868200
    reduced_to: 1
  - symbol: Ag # 52
    coordinates: [  0.599999996430886,  0.999999998866900,  0.499999996613893 ]
    mass: 107.868200
    reduced_to: 1
  - symbol: Ag # 53
    coordinates: [  0.799999996430886,  0.249999998866900,  0.499999996613893 ]
    mass: 107.868200
    reduced_to: 1
  - symbol: Ag # 54
    coordinates: [  0.799999996430886,  0.499999998866900,  0.499999996613893 ]
    mass: 107.868200
    reduced_to: 1
  - symbol: Ag # 55
    coordinates: [  0.799999996430886,  0.749999998866900,  0.499999996613893 ]
    mass: 107.868200
    reduced_to: 1
  - symbol: Ag # 56
    coordinates: [  0.799999996430886,  0.999999998866900,  0.499999996613893 ]
    mass: 107.868200
    reduced_to: 1
  - symbol: Ag # 57
    coordinates: [  0.999999996430886,  0.249999998866900,  0.499999996613893 ]
    mass: 107.868200
    reduced_to: 1
  - symbol: Ag # 58
    coordinates: [  0.999999996430886,  0.499999998866900,  0.499999996613893 ]
    mass: 107.868200
    reduced_to: 1
  - symbol: Ag # 59
    coordinates: [  0.999999996430886,  0.749999998866900,  0.499999996613893 ]
    mass: 107.868200
    reduced_to: 1
  - symbol: Ag # 60
    coordinates: [  0.999999996430886,  0.999999998866900,  0.499999996613893 ]
    mass: 107.868200
    reduced_to: 1
  - symbol: Ag # 61
    coordinates: [  0.199999996430886,  0.249999998866900,  0.249999996613893 ]
    mass: 107.868200
    reduced_to: 1
  - symbol: Ag # 62
    coordinates: [  0.199999996430886,  0.499999998866900,  0.249999996613893 ]
    mass: 107.868200
    reduced_to: 1
  - symbol: Ag # 63
    coordinates: [  0.199999996430886,  0.749999998866900,  0.249999996613893 ]
    mass: 107.868200
    reduced_to: 1
  - symbol: Ag # 64
    coordinates: [  0.199999996430886,  0.999999998866900,  0.249999996613893 ]
    mass: 107.868200
    reduced_to: 1
  - symbol: Ag # 65
    coordinates: [  0.399999996430886,  0.249999998866900,  0.249999996613893 ]
    mass: 107.868200
    reduced_to: 1
  - symbol: Ag # 66
    coordinates: [  0.399999996430886,  0.499999998866900,  0.249999996613893 ]
    mass: 107.868200
    reduced_to: 1
  - symbol: Ag # 67
    coordinates: [  0.399999996430886,  0.749999998866900,  0.249999996613893 ]
    mass: 107.868200
    reduced_to: 1
  - symbol: Ag # 68
    coordinates: [  0.399999996430886,  0.999999998866900,  0.249999996613893 ]
    mass: 107.868200
    reduced_to: 1
  - symbol: Ag # 69
    coordinates: [  0.599999996430886,  0.249999998866900,  0.249999996613893 ]
    mass: 107.868200
    reduced_to: 1
  - symbol: Ag # 70
    coordinates: [  0.599999996430886,  0.499999998866900,  0.249999996613893 ]
    mass: 107.868200
    reduced_to: 1
  - symbol: Ag # 71
    coordinates: [  0.599999996430886,  0.749999998866900,  0.249999996613893 ]
    mass: 107.868200
    reduced_to: 1
  - symbol: Ag # 72
    coordinates: [  0.599999996430886,  0.999999998866900,  0.249999996613893 ]
    mass: 107.868200
    reduced_to: 1
  - symbol: Ag # 73
    coordinates: [  0.799999996430886,  0.249999998866900,  0.249999996613893 ]
    mass: 107.868200
    reduced_to: 1
  - symbol: Ag # 74
    coordinates: [  0.799999996430886,  0.499999998866900,  0.249999996613893 ]
    mass: 107.868200
    reduced_to: 1
  - symbol: Ag # 75
    coordinates: [  0.799999996430886,  0.749999998866900,  0.249999996613893 ]
    mass: 107.868200
    reduced_to: 1
  - symbol: Ag # 76
    coordinates: [  0.799999996430886,  0.999999998866900,  0.249999996613893 ]
    mass: 107.868200
    reduced_to: 1
  - symbol: Ag # 77
    coordinates: [  0.999999996430886,  0.249999998866900,  0.249999996613893 ]
    mass: 107.868200
    reduced_to: 1
  - symbol: Ag # 78
    coordinates: [  0.999999996430886,  0.499999998866900,  0.249999996613893 ]
    mass: 107.868200
    reduced_to: 1
  - symbol: Ag # 79
    coordinates: [  0.999999996430886,  0.749999998866900,  0.249999996613893 ]
    mass: 107.868200
    reduced_to: 1
  - symbol: Ag # 80
    coordinates: [  0.999999996430886,  0.999999998866900,  0.249999996613893 ]
    mass: 107.868200
    reduced_to: 1
  - symbol: Ag # 81
    coordinates: [  0.100000001956646,  0.000000001306286,  0.875000003459718 ]
    mass: 107.868200
    reduced_to: 81
  - symbol: Ag # 82
    coordinates: [  0.100000001956646,  0.250000001306286,  0.875000003459718 ]
    mass: 107.868200
    reduced_to: 81
  - symbol: Ag # 83
    coordinates: [  0.100000001956646,  0.500000001306286,  0.875000003459718 ]
    mass: 107.868200
    reduced_to: 81
  - symbol: Ag # 84
    coordinates: [  0.100000001956646,  0.750000001306286,  0.875000003459718 ]
    mass: 107.868200
    reduced_to: 81
  - symbol: Ag # 85
    coordinates: [  0.300000001956646,  0.000000001306286,  0.875000003459718 ]
    mass: 107.868200
    reduced_to: 81
  - symbol: Ag # 86
    coordinates: [  0.300000001956646,  0.250000001306286,  0.875000003459718 ]
    mass: 107.868200
    reduced_to: 81
  - symbol: Ag # 87
    coordinates: [  0.300000001956646,  0.500000001306286,  0.875000003459718 ]
    mass: 107.868200
    reduced_to: 81
  - symbol: Ag # 88
    coordinates: [  0.300000001956646,  0.750000001306286,  0.875000003459718 ]
    mass: 107.868200
    reduced_to: 81
  - symbol: Ag # 89
    coordinates: [  0.500000001956646,  0.000000001306286,  0.875000003459718 ]
    mass: 107.868200
    reduced_to: 81
  - symbol: Ag # 90
    coordinates: [  0.500000001956646,  0.250000001306286,  0.875000003459718 ]
    mass: 107.868200
    reduced_to: 81
  - symbol: Ag # 91
    coordinates: [  0.500000001956646,  0.500000001306286,  0.875000003459718 ]
    mass: 107.868200
    reduced_to: 81
  - symbol: Ag # 92
    coordinates: [  0.500000001956646,  0.750000001306286,  0.875000003459718 ]
    mass: 107.868200
    reduced_to: 81
  - symbol: Ag # 93
    coordinates: [  0.700000001956646,  0.000000001306286,  0.875000003459718 ]
    mass: 107.868200
    reduced_to: 81
  - symbol: Ag # 94
    coordinates: [  0.700000001956646,  0.250000001306286,  0.875000003459718 ]
    mass: 107.868200
    reduced_to: 81
  - symbol: Ag # 95
    coordinates: [  0.700000001956646,  0.500000001306286,  0.875000003459718 ]
    mass: 107.868200
    reduced_to: 81
  - symbol: Ag # 96
    coordinates: [  0.700000001956646,  0.750000001306286,  0.875000003459718 ]
    mass: 107.868200
    reduced_to: 81
  - symbol: Ag # 97
    coordinates: [  0.900000001956646,  0.000000001306286,  0.875000003459718 ]
    mass: 107.868200
    reduced_to: 81
  - symbol: Ag # 98
    coordinates: [  0.900000001956646,  0.250000001306286,  0.875000003459718 ]
    mass: 107.868200
    reduced_to: 81
  - symbol: Ag # 99
    coordinates: [  0.900000001956646,  0.500000001306286,  0.875000003459718 ]
    mass: 107.868200
    reduced_to: 81
  - symbol: Ag # 100
    coordinates: [  0.900000001956646,  0.750000001306286,  0.875000003459718 ]
    mass: 107.868200
    reduced_to: 81
  - symbol: Ag # 101
    coordinates: [  0.100000001956646,  0.000000001306286,  0.625000003459718 ]
    mass: 107.868200
    reduced_to: 81
  - symbol: Ag # 102
    coordinates: [  0.100000001956646,  0.250000001306286,  0.625000003459718 ]
    mass: 107.868200
    reduced_to: 81
  - symbol: Ag # 103
    coordinates: [  0.100000001956646,  0.500000001306286,  0.625000003459718 ]
    mass: 107.868200
    reduced_to: 81
  - symbol: Ag # 104
    coordinates: [  0.100000001956646,  0.750000001306286,  0.625000003459718 ]
    mass: 107.868200
    reduced_to: 81
  - symbol: Ag # 105
    coordinates: [  0.300000001956646,  0.000000001306286,  0.625000003459718 ]
    mass: 107.868200
    reduced_to: 81
  - symbol: Ag # 106
    coordinates: [  0.300000001956646,  0.250000001306286,  0.625000003459718 ]
    mass: 107.868200
    reduced_to: 81
  - symbol: Ag # 107
    coordinates: [  0.300000001956646,  0.500000001306286,  0.625000003459718 ]
    mass: 107.868200
    reduced_to: 81
  - symbol: Ag # 108
    coordinates: [  0.300000001956646,  0.750000001306286,  0.625000003459718 ]
    mass: 107.868200
    reduced_to: 81
  - symbol: Ag # 109
    coordinates: [  0.500000001956646,  0.000000001306286,  0.625000003459718 ]
    mass: 107.868200
    reduced_to: 81
  - symbol: Ag # 110
    coordinates: [  0.500000001956646,  0.250000001306286,  0.625000003459718 ]
    mass: 107.868200
    reduced_to: 81
  - symbol: Ag # 111
    coordinates: [  0.500000001956646,  0.500000001306286,  0.625000003459718 ]
    mass: 107.868200
    reduced_to: 81
  - symbol: Ag # 112
    coordinates: [  0.500000001956646,  0.750000001306286,  0.625000003459718 ]
    mass: 107.868200
    reduced_to: 81
  - symbol: Ag # 113
    coordinates: [  0.700000001956646,  0.000000001306286,  0.625000003459718 ]
    mass: 107.868200
    reduced_to: 81
  - symbol: Ag # 114
    coordinates: [  0.700000001956646,  0.250000001306286,  0.625000003459718 ]
    mass: 107.868200
    reduced_to: 81
  - symbol: Ag # 115
    coordinates: [  0.700000001956646,  0.500000001306286,  0.625000003459718 ]
    mass: 107.868200
    reduced_to: 81
  - symbol: Ag # 116
    coordinates: [  0.700000001956646,  0.750000001306286,  0.625000003459718 ]
    mass: 107.868200
    reduced_to: 81
  - symbol: Ag # 117
    coordinates: [  0.900000001956646,  0.000000001306286,  0.625000003459718 ]
    mass: 107.868200
    reduced_to: 81
  - symbol: Ag # 118
    coordinates: [  0.900000001956646,  0.250000001306286,  0.625000003459718 ]
    mass: 107.868200
    reduced_to: 81
  - symbol: Ag # 119
    coordinates: [  0.900000001956646,  0.500000001306286,  0.625000003459718 ]
    mass: 107.868200
    reduced_to: 81
  - symbol: Ag # 120
    coordinates: [  0.900000001956646,  0.750000001306286,  0.625000003459718 ]
    mass: 107.868200
    reduced_to: 81
  - symbol: Ag # 121
    coordinates: [  0.100000001956646,  0.000000001306286,  0.375000003459718 ]
    mass: 107.868200
    reduced_to: 81
  - symbol: Ag # 122
    coordinates: [  0.100000001956646,  0.250000001306286,  0.375000003459718 ]
    mass: 107.868200
    reduced_to: 81
  - symbol: Ag # 123
    coordinates: [  0.100000001956646,  0.500000001306286,  0.375000003459718 ]
    mass: 107.868200
    reduced_to: 81
  - symbol: Ag # 124
    coordinates: [  0.100000001956646,  0.750000001306286,  0.375000003459718 ]
    mass: 107.868200
    reduced_to: 81
  - symbol: Ag # 125
    coordinates: [  0.300000001956646,  0.000000001306286,  0.375000003459718 ]
    mass: 107.868200
    reduced_to: 81
  - symbol: Ag # 126
    coordinates: [  0.300000001956646,  0.250000001306286,  0.375000003459718 ]
    mass: 107.868200
    reduced_to: 81
  - symbol: Ag # 127
    coordinates: [  0.300000001956646,  0.500000001306286,  0.375000003459718 ]
    mass: 107.868200
    reduced_to: 81
  - symbol: Ag # 128
    coordinates: [  0.300000001956646,  0.750000001306286,  0.375000003459718 ]
    mass: 107.868200
    reduced_to: 81
  - symbol: Ag # 129
    coordinates: [  0.500000001956646,  0.000000001306286,  0.375000003459718 ]
    mass: 107.868200
    reduced_to: 81
  - symbol: Ag # 130
    coordinates: [  0.500000001956646,  0.250000001306286,  0.375000003459718 ]
    mass: 107.868200
    reduced_to: 81
  - symbol: Ag # 131
    coordinates: [  0.500000001956646,  0.500000001306286,  0.375000003459718 ]
    mass: 107.868200
    reduced_to: 81
  - symbol: Ag # 132
    coordinates: [  0.500000001956646,  0.750000001306286,  0.375000003459718 ]
    mass: 107.868200
    reduced_to: 81
  - symbol: Ag # 133
    coordinates: [  0.700000001956646,  0.000000001306286,  0.375000003459718 ]
    mass: 107.868200
    reduced_to: 81
  - symbol: Ag # 134
    coordinates: [  0.700000001956646,  0.250000001306286,  0.375000003459718 ]
    mass: 107.868200
    reduced_to: 81
  - symbol: Ag # 135
    coordinates: [  0.700000001956646,  0.500000001306286,  0.375000003459718 ]
    mass: 107.868200
    reduced_to: 81
  - symbol: Ag # 136
    coordinates: [  0.700000001956646,  0.750000001306286,  0.375000003459718 ]
    mass: 107.868200
    reduced_to: 81
  - symbol: Ag # 137
    coordinates: [  0.900000001956646,  0.000000001306286,  0.375000003459718 ]
    mass: 107.868200
    reduced_to: 81
  - symbol: Ag # 138
    coordinates: [  0.900000001956646,  0.250000001306286,  0.375000003459718 ]
    mass: 107.868200
    reduced_to: 81
  - symbol: Ag # 139
    coordinates: [  0.900000001956646,  0.500000001306286,  0.375000003459718 ]
    mass: 107.868200
    reduced_to: 81
  - symbol: Ag # 140
    coordinates: [  0.900000001956646,  0.750000001306286,  0.375000003459718 ]
    mass: 107.868200
    reduced_to: 81
  - symbol: Ag # 141
    coordinates: [  0.100000001956646,  0.000000001306286,  0.125000003459718 ]
    mass: 107.868200
    reduced_to: 81
  - symbol: Ag # 142
    coordinates: [  0.100000001956646,  0.250000001306286,  0.125000003459718 ]
    mass: 107.868200
    reduced_to: 81
  - symbol: Ag # 143
    coordinates: [  0.100000001956646,  0.500000001306286,  0.125000003459718 ]
    mass: 107.868200
    reduced_to: 81
  - symbol: Ag # 144
    coordinates: [  0.100000001956646,  0.750000001306286,  0.125000003459718 ]
    mass: 107.868200
    reduced_to: 81
  - symbol: Ag # 145
    coordinates: [  0.300000001956646,  0.000000001306286,  0.125000003459718 ]
    mass: 107.868200
    reduced_to: 81
  - symbol: Ag # 146
    coordinates: [  0.300000001956646,  0.250000001306286,  0.125000003459718 ]
    mass: 107.868200
    reduced_to: 81
  - symbol: Ag # 147
    coordinates: [  0.300000001956646,  0.500000001306286,  0.125000003459718 ]
    mass: 107.868200
    reduced_to: 81
  - symbol: Ag # 148
    coordinates: [  0.300000001956646,  0.750000001306286,  0.125000003459718 ]
    mass: 107.868200
    reduced_to: 81
  - symbol: Ag # 149
    coordinates: [  0.500000001956646,  0.000000001306286,  0.125000003459718 ]
    mass: 107.868200
    reduced_to: 81
  - symbol: Ag # 150
    coordinates: [  0.500000001956646,  0.250000001306286,  0.125000003459718 ]
    mass: 107.868200
    reduced_to: 81
  - symbol: Ag # 151
    coordinates: [  0.500000001956646,  0.500000001306286,  0.125000003459718 ]
    mass: 107.868200
    reduced_to: 81
  - symbol: Ag # 152
    coordinates: [  0.500000001956646,  0.750000001306286,  0.125000003459718 ]
    mass: 107.868200
    reduced_to: 81
  - symbol: Ag # 153
    coordinates: [  0.700000001956646,  0.000000001306286,  0.125000003459718 ]
    mass: 107.868200
    reduced_to: 81
  - symbol: Ag # 154
    coordinates: [  0.700000001956646,  0.250000001306286,  0.125000003459718 ]
    mass: 107.868200
    reduced_to: 81
  - symbol: Ag # 155
    coordinates: [  0.700000001956646,  0.500000001306286,  0.125000003459718 ]
    mass: 107.868200
    reduced_to: 81
  - symbol: Ag # 156
    coordinates: [  0.700000001956646,  0.750000001306286,  0.125000003459718 ]
    mass: 107.868200
    reduced_to: 81
  - symbol: Ag # 157
    coordinates: [  0.900000001956646,  0.000000001306286,  0.125000003459718 ]
    mass: 107.868200
    reduced_to: 81
  - symbol: Ag # 158
    coordinates: [  0.900000001956646,  0.250000001306286,  0.125000003459718 ]
    mass: 107.868200
    reduced_to: 81
  - symbol: Ag # 159
    coordinates: [  0.900000001956646,  0.500000001306286,  0.125000003459718 ]
    mass: 107.868200
    reduced_to: 81
  - symbol: Ag # 160
    coordinates: [  0.900000001956646,  0.750000001306286,  0.125000003459718 ]
    mass: 107.868200
    reduced_to: 81
  - symbol: Ag # 161
    coordinates: [  0.000000001874360,  0.249999998817621,  0.874999996422363 ]
    mass: 107.868200
    reduced_to: 161
  - symbol: Ag # 162
    coordinates: [  0.000000001874360,  0.499999998817621,  0.874999996422363 ]
    mass: 107.868200
    reduced_to: 161
  - symbol: Ag # 163
    coordinates: [  0.000000001874360,  0.749999998817621,  0.874999996422363 ]
    mass: 107.868200
    reduced_to: 161
  - symbol: Ag # 164
    coordinates: [  0.000000001874360,  0.999999998817621,  0.874999996422363 ]
    mass: 107.868200
    reduced_to: 161
  - symbol: Ag # 165
    coordinates: [  0.200000001874360,  0.249999998817621,  0.874999996422363 ]
    mass: 107.868200
    reduced_to: 161
  - symbol: Ag # 166
    coordinates: [  0.200000001874360,  0.499999998817621,  0.874999996422363 ]
    mass: 107.868200
    reduced_to: 161
  - symbol: Ag # 167
    coordinates: [  0.200000001874360,  0.749999998817621,  0.874999996422363 ]
    mass: 107.868200
    reduced_to: 161
  - symbol: Ag # 168
    coordinates: [  0.200000001874360,  0.999999998817621,  0.874999996422363 ]
    mass: 107.868200
    reduced_to: 161
  - symbol: Ag # 169
    coordinates: [  0.400000001874360,  0.249999998817621,  0.874999996422363 ]
    mass: 107.868200
    reduced_to: 161
  - symbol: Ag # 170
    coordinates: [  0.400000001874360,  0.499999998817621,  0.874999996422363 ]
    mass: 107.868200
    reduced_to: 161
  - symbol: Ag # 171
    coordinates: [  0.400000001874360,  0.749999998817621,  0.874999996422363 ]
    mass: 107.868200
    reduced_to: 161
  - symbol: Ag # 172
    coordinates: [  0.400000001874360,  0.999999998817621,  0.874999996422363 ]
    mass: 107.868200
    reduced_to: 161
  - symbol: Ag # 173
    coordinates: [  0.600000001874360,  0.249999998817621,  0.874999996422363 ]
    mass: 107.868200
    reduced_to: 161
  - symbol: Ag # 174
    coordinates: [  0.600000001874360,  0.499999998817621,  0.874999996422363 ]
    mass: 107.868200
    reduced_to: 161
  - symbol: Ag # 175
    coordinates: [  0.600000001874360,  0.749999998817621,  0.874999996422363 ]
    mass: 107.868200
    reduced_to: 161
  - symbol: Ag # 176
    coordinates: [  0.600000001874360,  0.999999998817621,  0.874999996422363 ]
    mass: 107.868200
    reduced_to: 161
  - symbol: Ag # 177
    coordinates: [  0.800000001874360,  0.249999998817621,  0.874999996422363 ]
    mass: 107.868200
    reduced_to: 161
  - symbol: Ag # 178
    coordinates: [  0.800000001874360,  0.499999998817621,  0.874999996422363 ]
    mass: 107.868200
    reduced_to: 161
  - symbol: Ag # 179
    coordinates: [  0.800000001874360,  0.749999998817621,  0.874999996422363 ]
    mass: 107.868200
    reduced_to: 161
  - symbol: Ag # 180
    coordinates: [  0.800000001874360,  0.999999998817621,  0.874999996422363 ]
    mass: 107.868200
    reduced_to: 161
  - symbol: Ag # 181
    coordinates: [  0.000000001874360,  0.249999998817621,  0.624999996422363 ]
    mass: 107.868200
    reduced_to: 161
  - symbol: Ag # 182
    coordinates: [  0.000000001874360,  0.499999998817621,  0.624999996422363 ]
    mass: 107.868200
    reduced_to: 161
  - symbol: Ag # 183
    coordinates: [  0.000000001874360,  0.749999998817621,  0.624999996422363 ]
    mass: 107.868200
    reduced_to: 161
  - symbol: Ag # 184
    coordinates: [  0.000000001874360,  0.999999998817621,  0.624999996422363 ]
    mass: 107.868200
    reduced_to: 161
  - symbol: Ag # 185
    coordinates: [  0.200000001874360,  0.249999998817621,  0.624999996422363 ]
    mass: 107.868200
    reduced_to: 161
  - symbol: Ag # 186
    coordinates: [  0.200000001874360,  0.499999998817621,  0.624999996422363 ]
    mass: 107.868200
    reduced_to: 161
  - symbol: Ag # 187
    coordinates: [  0.200000001874360,  0.749999998817621,  0.624999996422363 ]
    mass: 107.868200
    reduced_to: 161
  - symbol: Ag # 188
    coordinates: [  0.200000001874360,  0.999999998817621,  0.624999996422363 ]
    mass: 107.868200
    reduced_to: 161
  - symbol: Ag # 189
    coordinates: [  0.400000001874360,  0.249999998817621,  0.624999996422363 ]
    mass: 107.868200
    reduced_to: 161
  - symbol: Ag # 190
    coordinates: [  0.400000001874360,  0.499999998817621,  0.624999996422363 ]
    mass: 107.868200
    reduced_to: 161
  - symbol: Ag # 191
    coordinates: [  0.400000001874360,  0.749999998817621,  0.624999996422363 ]
    mass: 107.868200
    reduced_to: 161
  - symbol: Ag # 192
    coordinates: [  0.400000001874360,  0.999999998817621,  0.624999996422363 ]