phonopy:
  version: "2.27.0"
  frequency_unit_conversion_factor: 15.633302
  symmetry_tolerance: 1.00000e-03

space_group:
  type: "P4/nmm"
  number: 129
  Hall_symbol: "P 4ab 2ab -1ab"

primitive_matrix:
- [  0.000000000000000, -0.000000000000000, -1.000000000000000 ]
- [  0.000000000000000, -1.000000000000000, -0.000000000000000 ]
- [ -1.000000000000000, -0.000000000000000, -0.000000000000000 ]

supercell_matrix:
- [   0,   5,  -1 ]
- [   4,   0,   0 ]
- [   0,   0,  -4 ]

primitive_cell:
  lattice:
  - [    -0.000000000001541,     0.614451480056212,     5.870617862579955 ] # a
  - [    -5.902686278465335,     0.000000000004824,    -0.000000000000050 ] # b
  - [     0.000000000003663,    -4.198202548389718,     0.439133545739965 ] # c
  points:
  - symbol: Ag # 1
    coordinates: [  0.000000007428267,  0.000000011660260,  0.999999996536316 ]
    mass: 107.868200
  - symbol: Ag # 2
    coordinates: [  0.499999965955221,  0.499999970443510,  0.999999961887850 ]
    mass: 107.868200
  - symbol: Ag # 3
    coordinates: [  0.499999962500924,  0.000000033013730,  0.999999963009769 ]
    mass: 107.868200
  - symbol: Ag # 4
    coordinates: [  0.000000010779043,  0.499999998571890,  0.999999995455741 ]
    mass: 107.868200
  - symbol: S  # 5
    coordinates: [  0.750012702333752,  0.750000003155654,  0.303749530998355 ]
    mass: 32.065000
  - symbol: S  # 6
    coordinates: [  0.249987351002867,  0.250000003155020,  0.696250552111961 ]
    mass: 32.065000
  reciprocal_lattice: # without 2pi
  - [     0.000000000000013,     0.017624652926072,     0.168495127613261 ] # a*
  - [    -0.169414390808518,    -0.000000000000151,    -0.000000000000029 ] # b*
  - [    -0.000000000000193,    -0.235617623142911,     0.024661049425531 ] # c*

unit_cell:
  lattice:
  - [    -0.000000000003663,     4.198202548389717,    -0.439133545739965 ] # a
  - [     5.902686278465335,    -0.000000000004824,     0.000000000000050 ] # b
  - [     0.000000000001541,    -0.614451480056212,    -5.870617862579954 ] # c
  points:
  - symbol: Ag # 1
    coordinates: [  1.000000003463684,  0.999999988339740, -0.000000007428267 ]
    mass: 107.868200
    reduced_to: 1
  - symbol: Ag # 2
    coordinates: [  0.000000038112150,  0.500000029556490,  0.500000034044779 ]
    mass: 107.868200
    reduced_to: 2
  - symbol: Ag # 3
    coordinates: [  1.000000036990231, -0.000000033013730,  0.500000037499076 ]
    mass: 107.868200
    reduced_to: 3
  - symbol: Ag # 4
    coordinates: [  0.000000004544259,  0.500000001428110,  0.999999989220957 ]
    mass: 107.868200
    reduced_to: 4
  - symbol: S  # 5
    coordinates: [  0.696250469001645,  0.249999996844346,  0.249987297666247 ]
    mass: 32.065000
    reduced_to: 5
  - symbol: S  # 6
    coordinates: [  0.303749447888039,  0.749999996844980,  0.750012648997133 ]
    mass: 32.065000
    reduced_to: 6

supercell:
  lattice:
  - [    23.610745113861341,    -0.000000000019295,     0.000000000000200 ] # a
  - [    -0.000000000018316,    20.991012741948587,    -2.195667728699826 ] # b
  - [    -0.000000000002502,    -1.740396628164870,    23.921604996059784 ] # c
  points:
  - symbol: Ag # 1
    coordinates: [  0.249999997084935,  0.200000001064150,  0.000000001857067 ]
    mass: 107.868200
    reduced_to: 1
  - symbol: Ag # 2
    coordinates: [  0.249999997084935,  0.400000001064150,  0.000000001857067 ]
    mass: 107.868200
    reduced_to: 1
  - symbol: Ag # 3
    coordinates: [  0.249999997084935,  0.600000001064150,  0.000000001857067 ]
    mass: 107.868200
    reduced_to: 1
  - symbol: Ag # 4
    coordinates: [  0.249999997084935,  0.800000001064150,  0.000000001857067 ]
    mass: 107.868200
    reduced_to: 1
  - symbol: Ag # 5
    coordinates: [  0.249999997084935,  0.000000001064150,  0.000000001857067 ]
    mass: 107.868200
    reduced_to: 1
  - symbol: Ag # 6
    coordinates: [  0.499999997084935,  0.200000001064150,  0.000000001857067 ]
    mass: 107.868200
    reduced_to: 1
  - symbol: Ag # 7
    coordinates: [  0.499999997084935,  0.400000001064150,  0.000000001857067 ]
    mass: 107.868200
    reduced_to: 1
  - symbol: Ag # 8
    coordinates: [  0.499999997084935,  0.600000001064150,  0.000000001857067 ]
    mass: 107.868200
    reduced_to: 1
  - symbol: Ag # 9
    coordinates: [  0.499999997084935,  0.800000001064150,  0.000000001857067 ]
    mass: 107.868200
    reduced_to: 1
  - symbol: Ag # 10
    coordinates: [  0.499999997084935,  0.000000001064150,  0.000000001857067 ]
    mass: 107.868200
    reduced_to: 1
  - symbol: Ag # 11
    coordinates: [  0.749999997084935,  0.200000001064150,  0.000000001857067 ]
    mass: 107.868200
    reduced_to: 1
  - symbol: Ag # 12
    coordinates: [  0.749999997084935,  0.400000001064150,  0.000000001857067 ]
    mass: 107.868200
    reduced_to: 1
  - symbol: Ag # 13
    coordinates: [  0.749999997084935,  0.600000001064150,  0.000000001857067 ]
    mass: 107.868200
    reduced_to: 1
  - symbol: Ag # 14
    coordinates: [  0.749999997084935,  0.800000001064150,  0.000000001857067 ]
    mass: 107.868200
    reduced_to: 1
  - symbol: Ag # 15
    coordinates: [  0.749999997084935,  0.000000001064150,  0.000000001857067 ]
    mass: 107.868200
    reduced_to: 1
  - symbol: Ag # 16
    coordinates: [  0.999999997084935,  0.200000001064150,  0.000000001857067 ]
    mass: 107.868200
    reduced_to: 1
  - symbol: Ag # 17
    coordinates: [  0.999999997084935,  0.400000001064150,  0.000000001857067 ]
    mass: 107.868200
    reduced_to: 1
  - symbol: Ag # 18
    coordinates: [  0.999999997084935,  0.600000001064150,  0.000000001857067 ]
    mass: 107.868200
    reduced_to: 1
  - symbol: Ag # 19
    coordinates: [  0.999999997084935,  0.800000001064150,  0.000000001857067 ]
    mass: 107.868200
    reduced_to: 1
  - symbol: Ag # 20
    coordinates: [  0.999999997084935,  0.000000001064150,  0.000000001857067 ]
    mass: 107.868200
    reduced_to: 1
  - symbol: Ag # 21
    coordinates: [  0.249999997084935,  0.150000001064150,  0.750000001857067 ]
    mass: 107.868200
    reduced_to: 1
  - symbol: Ag # 22
    coordinates: [  0.249999997084935,  0.350000001064150,  0.750000001857067 ]
    mass: 107.868200
    reduced_to: 1
  - symbol: Ag # 23
    coordinates: [  0.249999997084935,  0.550000001064150,  0.750000001857067 ]
    mass: 107.868200
    reduced_to: 1
  - symbol: Ag # 24
    coordinates: [  0.249999997084935,  0.750000001064150,  0.750000001857067 ]
    mass: 107.868200
    reduced_to: 1
  - symbol: Ag # 25
    coordinates: [  0.249999997084935,  0.950000001064150,  0.750000001857067 ]
    mass: 107.868200
    reduced_to: 1
  - symbol: Ag # 26
    coordinates: [  0.499999997084935,  0.150000001064150,  0.750000001857067 ]
    mass: 107.868200
    reduced_to: 1
  - symbol: Ag # 27
    coordinates: [  0.499999997084935,  0.350000001064150,  0.750000001857067 ]
    mass: 107.868200
    reduced_to: 1
  - symbol: Ag # 28
    coordinates: [  0.499999997084935,  0.550000001064150,  0.750000001857067 ]
    mass: 107.868200
    reduced_to: 1
  - symbol: Ag # 29
    coordinates: [  0.499999997084935,  0.750000001064150,  0.750000001857067 ]
    mass: 107.868200
    reduced_to: 1
  - symbol: Ag # 30
    coordinates: [  0.499999997084935,  0.950000001064150,  0.750000001857067 ]
    mass: 107.868200
    reduced_to: 1
  - symbol: Ag # 31
    coordinates: [  0.749999997084935,  0.150000001064150,  0.750000001857067 ]
    mass: 107.868200
    reduced_to: 1
  - symbol: Ag # 32
    coordinates: [  0.749999997084935,  0.350000001064150,  0.750000001857067 ]
    mass: 107.868200
    reduced_to: 1
  - symbol: Ag # 33
    coordinates: [  0.749999997084935,  0.550000001064150,  0.750000001857067 ]
    mass: 107.868200
    reduced_to: 1
  - symbol: Ag # 34
    coordinates: [  0.749999997084935,  0.750000001064150,  0.750000001857067 ]
    mass: 107.868200
    reduced_to: 1
  - symbol: Ag # 35
    coordinates: [  0.749999997084935,  0.950000001064150,  0.750000001857067 ]
    mass: 107.868200
    reduced_to: 1
  - symbol: Ag # 36
    coordinates: [  0.999999997084935,  0.150000001064150,  0.750000001857067 ]
    mass: 107.868200
    reduced_to: 1
  - symbol: Ag # 37
    coordinates: [  0.999999997084935,  0.350000001064150,  0.750000001857067 ]
    mass: 107.868200
    reduced_to: 1
  - symbol: Ag # 38
    coordinates: [  0.999999997084935,  0.550000001064150,  0.750000001857067 ]
    mass: 107.868200
    reduced_to: 1
  - symbol: Ag # 39
    coordinates: [  0.999999997084935,  0.750000001064150,  0.750000001857067 ]
    mass: 107.868200
    reduced_to: 1
  - symbol: Ag # 40
    coordinates: [  0.999999997084935,  0.950000001064150,  0.750000001857067 ]
    mass: 107.868200
    reduced_to: 1
  - symbol: Ag # 41
    coordinates: [  0.249999997084935,  0.100000001064150,  0.500000001857067 ]
    mass: 107.868200
    reduced_to: 1
  - symbol: Ag # 42
    coordinates: [  0.249999997084935,  0.300000001064150,  0.500000001857067 ]
    mass: 107.868200
    reduced_to: 1
  - symbol: Ag # 43
    coordinates: [  0.249999997084935,  0.500000001064150,  0.500000001857067 ]
    mass: 107.868200
    reduced_to: 1
  - symbol: Ag # 44
    coordinates: [  0.249999997084935,  0.700000001064150,  0.500000001857067 ]
    mass: 107.868200
    reduced_to: 1
  - symbol: Ag # 45
    coordinates: [  0.249999997084935,  0.900000001064150,  0.500000001857067 ]
    mass: 107.868200
    reduced_to: 1
  - symbol: Ag # 46
    coordinates: [  0.499999997084935,  0.100000001064150,  0.500000001857067 ]
    mass: 107.868200
    reduced_to: 1
  - symbol: Ag # 47
    coordinates: [  0.499999997084935,  0.300000001064150,  0.500000001857067 ]
    mass: 107.868200
    reduced_to: 1
  - symbol: Ag # 48
    coordinates: [  0.499999997084935,  0.500000001064150,  0.500000001857067 ]
    mass: 107.868200
    reduced_to: 1
  - symbol: Ag # 49
    coordinates: [  0.499999997084935,  0.700000001064150,  0.500000001857067 ]
    mass: 107.868200
    reduced_to: 1
  - symbol: Ag # 50
    coordinates: [  0.499999997084935,  0.900000001064150,  0.500000001857067 ]
    mass: 107.868200
    reduced_to: 1
  - symbol: Ag # 51
    coordinates: [  0.749999997084935,  0.100000001064150,  0.500000001857067 ]
    mass: 107.868200
    reduced_to: 1
  - symbol: Ag # 52
    coordinates: [  0.749999997084935,  0.300000001064150,  0.500000001857067 ]
    mass: 107.868200
    reduced_to: 1
  - symbol: Ag # 53
    coordinates: [  0.749999997084935,  0.500000001064150,  0.500000001857067 ]
    mass: 107.868200
    reduced_to: 1
  - symbol: Ag # 54
    coordinates: [  0.749999997084935,  0.700000001064150,  0.500000001857067 ]
    mass: 107.868200
    reduced_to: 1
  - symbol: Ag # 55
    coordinates: [  0.749999997084935,  0.900000001064150,  0.500000001857067 ]
    mass: 107.868200
    reduced_to: 1
  - symbol: Ag # 56
    coordinates: [  0.999999997084935,  0.100000001064150,  0.500000001857067 ]
    mass: 107.868200
    reduced_to: 1
  - symbol: Ag # 57
    coordinates: [  0.999999997084935,  0.300000001064150,  0.500000001857067 ]
    mass: 107.868200
    reduced_to: 1
  - symbol: Ag # 58
    coordinates: [  0.999999997084935,  0.500000001064150,  0.500000001857067 ]
    mass: 107.868200
    reduced_to: 1
  - symbol: Ag # 59
    coordinates: [  0.999999997084935,  0.700000001064150,  0.500000001857067 ]
    mass: 107.868200
    reduced_to: 1
  - symbol: Ag # 60
    coordinates: [  0.999999997084935,  0.900000001064150,  0.500000001857067 ]
    mass: 107.868200
    reduced_to: 1
  - symbol: Ag # 61
    coordinates: [  0.249999997084935,  0.050000001064150,  0.250000001857067 ]
    mass: 107.868200
    reduced_to: 1
  - symbol: Ag # 62
    coordinates: [  0.249999997084935,  0.250000001064150,  0.250000001857067 ]
    mass: 107.868200
    reduced_to: 1
  - symbol: Ag # 63
    coordinates: [  0.249999997084935,  0.450000001064150,  0.250000001857067 ]
    mass: 107.868200
    reduced_to: 1
  - symbol: Ag # 64
    coordinates: [  0.249999997084935,  0.650000001064150,  0.250000001857067 ]
    mass: 107.868200
    reduced_to: 1
  - symbol: Ag # 65
    coordinates: [  0.249999997084935,  0.850000001064150,  0.250000001857067 ]
    mass: 107.868200
    reduced_to: 1
  - symbol: Ag # 66
    coordinates: [  0.499999997084935,  0.050000001064150,  0.250000001857067 ]
    mass: 107.868200
    reduced_to: 1
  - symbol: Ag # 67
    coordinates: [  0.499999997084935,  0.250000001064150,  0.250000001857067 ]
    mass: 107.868200
    reduced_to: 1
  - symbol: Ag # 68
    coordinates: [  0.499999997084935,  0.450000001064150,  0.250000001857067 ]
    mass: 107.868200
    reduced_to: 1
  - symbol: Ag # 69
    coordinates: [  0.499999997084935,  0.650000001064150,  0.250000001857067 ]
    mass: 107.868200
    reduced_to: 1
  - symbol: Ag # 70
    coordinates: [  0.499999997084935,  0.850000001064150,  0.250000001857067 ]
    mass: 107.868200
    reduced_to: 1
  - symbol: Ag # 71
    coordinates: [  0.749999997084935,  0.050000001064150,  0.250000001857067 ]
    mass: 107.868200
    reduced_to: 1
  - symbol: Ag # 72
    coordinates: [  0.749999997084935,  0.250000001064150,  0.250000001857067 ]
    mass: 107.868200
    reduced_to: 1
  - symbol: Ag # 73
    coordinates: [  0.749999997084935,  0.450000001064150,  0.250000001857067 ]
    mass: 107.868200
    reduced_to: 1
  - symbol: Ag # 74
    coordinates: [  0.749999997084935,  0.650000001064150,  0.250000001857067 ]
    mass: 107.868200
    reduced_to: 1
  - symbol: Ag # 75
    coordinates: [  0.749999997084935,  0.850000001064150,  0.250000001857067 ]
    mass: 107.868200
    reduced_to: 1
  - symbol: Ag # 76
    coordinates: [  0.999999997084935,  0.050000001064150,  0.250000001857067 ]
    mass: 107.868200
    reduced_to: 1
  - symbol: Ag # 77
    coordinates: [  0.999999997084935,  0.250000001064150,  0.250000001857067 ]
    mass: 107.868200
    reduced_to: 1
  - symbol: Ag # 78
    coordinates: [  0.999999997084935,  0.450000001064150,  0.250000001857067 ]
    mass: 107.868200
    reduced_to: 1
  - symbol: Ag # 79
    coordinates: [  0.999999997084935,  0.650000001064150,  0.250000001857067 ]
    mass: 107.868200
    reduced_to: 1
  - symbol: Ag # 80
    coordinates: [  0.999999997084935,  0.850000001064150,  0.250000001857067 ]
    mass: 107.868200
    reduced_to: 1
  - symbol: Ag # 81
    coordinates: [  0.125000007389123,  0.975000005920191,  0.874999991488805 ]
    mass: 107.868200
    reduced_to: 81
  - symbol: Ag # 82
    coordinates: [  0.125000007389123,  0.175000005920191,  0.874999991488805 ]
    mass: 107.868200
    reduced_to: 81
  - symbol: Ag # 83
    coordinates: [  0.125000007389123,  0.375000005920191,  0.874999991488805 ]
    mass: 107.868200
    reduced_to: 81
  - symbol: Ag # 84
    coordinates: [  0.125000007389123,  0.575000005920191,  0.874999991488805 ]
    mass: 107.868200
    reduced_to: 81
  - symbol: Ag # 85
    coordinates: [  0.125000007389123,  0.775000005920191,  0.874999991488805 ]
    mass: 107.868200
    reduced_to: 81
  - symbol: Ag # 86
    coordinates: [  0.375000007389123,  0.975000005920191,  0.874999991488805 ]
    mass: 107.868200
    reduced_to: 81
  - symbol: Ag # 87
    coordinates: [  0.375000007389123,  0.175000005920191,  0.874999991488805 ]
    mass: 107.868200
    reduced_to: 81
  - symbol: Ag # 88
    coordinates: [  0.375000007389123,  0.375000005920191,  0.874999991488805 ]
    mass: 107.868200
    reduced_to: 81
  - symbol: Ag # 89
    coordinates: [  0.375000007389123,  0.575000005920191,  0.874999991488805 ]
    mass: 107.868200
    reduced_to: 81
  - symbol: Ag # 90
    coordinates: [  0.375000007389123,  0.775000005920191,  0.874999991488805 ]
    mass: 107.868200
    reduced_to: 81
  - symbol: Ag # 91
    coordinates: [  0.625000007389123,  0.975000005920191,  0.874999991488805 ]
    mass: 107.868200
    reduced_to: 81
  - symbol: Ag # 92
    coordinates: [  0.625000007389123,  0.175000005920191,  0.874999991488805 ]
    mass: 107.868200
    reduced_to: 81
  - symbol: Ag # 93
    coordinates: [  0.625000007389123,  0.375000005920191,  0.874999991488805 ]
    mass: 107.868200
    reduced_to: 81
  - symbol: Ag # 94
    coordinates: [  0.625000007389123,  0.575000005920191,  0.874999991488805 ]
    mass: 107.868200
    reduced_to: 81
  - symbol: Ag # 95
    coordinates: [  0.625000007389123,  0.775000005920191,  0.874999991488805 ]
    mass: 107.868200
    reduced_to: 81
  - symbol: Ag # 96
    coordinates: [  0.875000007389123,  0.975000005920191,  0.874999991488805 ]
    mass: 107.868200
    reduced_to: 81
  - symbol: Ag # 97
    coordinates: [  0.875000007389123,  0.175000005920191,  0.874999991488805 ]
    mass: 107.868200
    reduced_to: 81
  - symbol: Ag # 98
    coordinates: [  0.875000007389123,  0.375000005920191,  0.874999991488805 ]
    mass: 107.868200
    reduced_to: 81
  - symbol: Ag # 99
    coordinates: [  0.875000007389123,  0.575000005920191,  0.874999991488805 ]
    mass: 107.868200
    reduced_to: 81
  - symbol: Ag # 100
    coordinates: [  0.875000007389123,  0.775000005920191,  0.874999991488805 ]
    mass: 107.868200
    reduced_to: 81
  - symbol: Ag # 101
    coordinates: [  0.125000007389123,  0.925000005920191,  0.624999991488805 ]
    mass: 107.868200
    reduced_to: 81
  - symbol: Ag # 102
    coordinates: [  0.125000007389123,  0.125000005920191,  0.624999991488805 ]
    mass: 107.868200
    reduced_to: 81
  - symbol: Ag # 103
    coordinates: [  0.125000007389123,  0.325000005920191,  0.624999991488805 ]
    mass: 107.868200
    reduced_to: 81
  - symbol: Ag # 104
    coordinates: [  0.125000007389123,  0.525000005920191,  0.624999991488805 ]
    mass: 107.868200
    reduced_to: 81
  - symbol: Ag # 105
    coordinates: [  0.125000007389123,  0.725000005920191,  0.624999991488805 ]
    mass: 107.868200
    reduced_to: 81
  - symbol: Ag # 106
    coordinates: [  0.375000007389123,  0.925000005920191,  0.624999991488805 ]
    mass: 107.868200
    reduced_to: 81
  - symbol: Ag # 107
    coordinates: [  0.375000007389123,  0.125000005920191,  0.624999991488805 ]
    mass: 107.868200
    reduced_to: 81
  - symbol: Ag # 108
    coordinates: [  0.375000007389123,  0.325000005920191,  0.624999991488805 ]
    mass: 107.868200
    reduced_to: 81
  - symbol: Ag # 109
    coordinates: [  0.375000007389123,  0.525000005920191,  0.624999991488805 ]
    mass: 107.868200
    reduced_to: 81
  - symbol: Ag # 110
    coordinates: [  0.375000007389123,  0.725000005920191,  0.624999991488805 ]
    mass: 107.868200
    reduced_to: 81
  - symbol: Ag # 111
    coordinates: [  0.625000007389123,  0.925000005920191,  0.624999991488805 ]
    mass: 107.868200
    reduced_to: 81
  - symbol: Ag # 112
    coordinates: [  0.625000007389123,  0.125000005920191,  0.624999991488805 ]
    mass: 107.868200
    reduced_to: 81
  - symbol: Ag # 113
    coordinates: [  0.625000007389123,  0.325000005920191,  0.624999991488805 ]
    mass: 107.868200
    reduced_to: 81
  - symbol: Ag # 114
    coordinates: [  0.625000007389123,  0.525000005920191,  0.624999991488805 ]
    mass: 107.868200
    reduced_to: 81
  - symbol: Ag # 115
    coordinates: [  0.625000007389123,  0.725000005920191,  0.624999991488805 ]
    mass: 107.868200
    reduced_to: 81
  - symbol: Ag # 116
    coordinates: [  0.875000007389123,  0.925000005920191,  0.624999991488805 ]
    mass: 107.868200
    reduced_to: 81
  - symbol: Ag # 117
    coordinates: [  0.875000007389123,  0.125000005920191,  0.624999991488805 ]
    mass: 107.868200
    reduced_to: 81
  - symbol: Ag # 118
    coordinates: [  0.875000007389123,  0.325000005920191,  0.624999991488805 ]
    mass: 107.868200
    reduced_to: 81
  - symbol: Ag # 119
    coordinates: [  0.875000007389123,  0.525000005920191,  0.624999991488805 ]
    mass: 107.868200
    reduced_to: 81
  - symbol: Ag # 120
    coordinates: [  0.875000007389123,  0.725000005920191,  0.624999991488805 ]
    mass: 107.868200
    reduced_to: 81
  - symbol: Ag # 121
    coordinates: [  0.125000007389123,  0.875000005920191,  0.374999991488805 ]
    mass: 107.868200
    reduced_to: 81
  - symbol: Ag # 122
    coordinates: [  0.125000007389123,  0.075000005920191,  0.374999991488805 ]
    mass: 107.868200
    reduced_to: 81
  - symbol: Ag # 123
    coordinates: [  0.125000007389123,  0.275000005920191,  0.374999991488805 ]
    mass: 107.868200
    reduced_to: 81
  - symbol: Ag # 124
    coordinates: [  0.125000007389123,  0.475000005920191,  0.374999991488805 ]
    mass: 107.868200
    reduced_to: 81
  - symbol: Ag # 125
    coordinates: [  0.125000007389123,  0.675000005920191,  0.374999991488805 ]
    mass: 107.868200
    reduced_to: 81
  - symbol: Ag # 126
    coordinates: [  0.375000007389123,  0.875000005920191,  0.374999991488805 ]
    mass: 107.868200
    reduced_to: 81
  - symbol: Ag # 127
    coordinates: [  0.375000007389123,  0.075000005920191,  0.374999991488805 ]
    mass: 107.868200
    reduced_to: 81
  - symbol: Ag # 128
    coordinates: [  0.375000007389123,  0.275000005920191,  0.374999991488805 ]
    mass: 107.868200
    reduced_to: 81
  - symbol: Ag # 129
    coordinates: [  0.375000007389123,  0.475000005920191,  0.374999991488805 ]
    mass: 107.868200
    reduced_to: 81
  - symbol: Ag # 130
    coordinates: [  0.375000007389123,  0.675000005920191,  0.374999991488805 ]
    mass: 107.868200
    reduced_to: 81
  - symbol: Ag # 131
    coordinates: [  0.625000007389123,  0.875000005920191,  0.374999991488805 ]
    mass: 107.868200
    reduced_to: 81
  - symbol: Ag # 132
    coordinates: [  0.625000007389123,  0.075000005920191,  0.374999991488805 ]
    mass: 107.868200
    reduced_to: 81
  - symbol: Ag # 133
    coordinates: [  0.625000007389123,  0.275000005920191,  0.374999991488805 ]
    mass: 107.868200
    reduced_to: 81
  - symbol: Ag # 134
    coordinates: [  0.625000007389123,  0.475000005920191,  0.374999991488805 ]
    mass: 107.868200
    reduced_to: 81
  - symbol: Ag # 135
    coordinates: [  0.625000007389123,  0.675000005920191,  0.374999991488805 ]
    mass: 107.868200
    reduced_to: 81
  - symbol: Ag # 136
    coordinates: [  0.875000007389123,  0.875000005920191,  0.374999991488805 ]
    mass: 107.868200
    reduced_to: 81
  - symbol: Ag # 137
    coordinates: [  0.875000007389123,  0.075000005920191,  0.374999991488805 ]
    mass: 107.868200
    reduced_to: 81
  - symbol: Ag # 138
    coordinates: [  0.875000007389123,  0.275000005920191,  0.374999991488805 ]
    mass: 107.868200
    reduced_to: 81
  - symbol: Ag # 139
    coordinates: [  0.875000007389123,  0.475000005920191,  0.374999991488805 ]
    mass: 107.868200
    reduced_to: 81
  - symbol: Ag # 140
    coordinates: [  0.875000007389123,  0.675000005920191,  0.374999991488805 ]
    mass: 107.868200
    reduced_to: 81
  - symbol: Ag # 141
    coordinates: [  0.125000007389123,  0.825000005920191,  0.124999991488805 ]
    mass: 107.868200
    reduced_to: 81
  - symbol: Ag # 142
    coordinates: [  0.125000007389123,  0.025000005920191,  0.124999991488805 ]
    mass: 107.868200
    reduced_to: 81
  - symbol: Ag # 143
    coordinates: [  0.125000007389123,  0.225000005920191,  0.124999991488805 ]
    mass: 107.868200
    reduced_to: 81
  - symbol: Ag # 144
    coordinates: [  0.125000007389123,  0.425000005920191,  0.124999991488805 ]
    mass: 107.868200
    reduced_to: 81
  - symbol: Ag # 145
    coordinates: [  0.125000007389123,  0.625000005920191,  0.124999991488805 ]
    mass: 107.868200
    reduced_to: 81
  - symbol: Ag # 146
    coordinates: [  0.375000007389123,  0.825000005920191,  0.124999991488805 ]
    mass: 107.868200
    reduced_to: 81
  - symbol: Ag # 147
    coordinates: [  0.375000007389123,  0.025000005920191,  0.124999991488805 ]
    mass: 107.868200
    reduced_to: 81
  - symbol: Ag # 148
    coordinates: [  0.375000007389123,  0.225000005920191,  0.124999991488805 ]
    mass: 107.868200
    reduced_to: 81
  - symbol: Ag # 149
    coordinates: [  0.375000007389123,  0.425000005920191,  0.124999991488805 ]
    mass: 107.868200
    reduced_to: 81
  - symbol: Ag # 150
    coordinates: [  0.375000007389123,  0.625000005920191,  0.124999991488805 ]
    mass: 107.868200
    reduced_to: 81
  - symbol: Ag # 151
    coordinates: [  0.625000007389123,  0.825000005920191,  0.124999991488805 ]
    mass: 107.868200
    reduced_to: 81
  - symbol: Ag # 152
    coordinates: [  0.625000007389123,  0.025000005920191,  0.124999991488805 ]
    mass: 107.868200
    reduced_to: 81
  - symbol: Ag # 153
    coordinates: [  0.625000007389123,  0.225000005920191,  0.124999991488805 ]
    mass: 107.868200
    reduced_to: 81
  - symbol: Ag # 154
    coordinates: [  0.625000007389123,  0.425000005920191,  0.124999991488805 ]
    mass: 107.868200
    reduced_to: 81
  - symbol: Ag # 155
    coordinates: [  0.625000007389123,  0.625000005920191,  0.124999991488805 ]
    mass: 107.868200
    reduced_to: 81
  - symbol: Ag # 156
    coordinates: [  0.875000007389123,  0.825000005920191,  0.124999991488805 ]
    mass: 107.868200
    reduced_to: 81
  - symbol: Ag # 157
    coordinates: [  0.875000007389123,  0.025000005920191,  0.124999991488805 ]
    mass: 107.868200
    reduced_to: 81
  - symbol: Ag # 158
    coordinates: [  0.875000007389123,  0.225000005920191,  0.124999991488805 ]
    mass: 107.868200
    reduced_to: 81
  - symbol: Ag # 159
    coordinates: [  0.875000007389123,  0.425000005920191,  0.124999991488805 ]
    mass: 107.868200
    reduced_to: 81
  - symbol: Ag # 160
    coordinates: [  0.875000007389123,  0.625000005920191,  0.124999991488805 ]
    mass: 107.868200
    reduced_to: 81
  - symbol: Ag # 161
    coordinates: [  0.999999991746568,  0.175000005523092,  0.874999990625231 ]
    mass: 107.868200
    reduced_to: 161
  - symbol: Ag # 162
    coordinates: [  0.999999991746568,  0.375000005523092,  0.874999990625231 ]
    mass: 107.868200
    reduced_to: 161
  - symbol: Ag # 163
    coordinates: [  0.999999991746568,  0.575000005523092,  0.874999990625231 ]
    mass: 107.868200
    reduced_to: 161
  - symbol: Ag # 164
    coordinates: [  0.999999991746568,  0.775000005523092,  0.874999990625231 ]
    mass: 107.868200
    reduced_to: 161
  - symbol: Ag # 165
    coordinates: [  0.999999991746568,  0.975000005523092,  0.874999990625231 ]
    mass: 107.868200
    reduced_to: 161
  - symbol: Ag # 166
    coordinates: [  0.249999991746568,  0.175000005523092,  0.874999990625231 ]
    mass: 107.868200
    reduced_to: 161
  - symbol: Ag # 167
    coordinates: [  0.249999991746568,  0.375000005523092,  0.874999990625231 ]
    mass: 107.868200
    reduced_to: 161
  - symbol: Ag # 168
    coordinates: [  0.249999991746568,  0.575000005523092,  0.874999990625231 ]
    mass: 107.868200
    reduced_to: 161
  - symbol: Ag # 169
    coordinates: [  0.249999991746568,  0.775000005523092,  0.874999990625231 ]
    mass: 107.868200
    reduced_to: 161
  - symbol: Ag # 170
    coordinates: [  0.249999991746568,  0.975000005523092,  0.874999990625231 ]
    mass: 107.868200
    reduced_to: 161
  - symbol: Ag # 171
    coordinates: [  0.499999991746568,  0.175000005523092,  0.874999990625231 ]
    mass: 107.868200
    reduced_to: 161
  - symbol: Ag # 172
    coordinates: [  0.499999991746568,  0.375000005523092,  0.874999990625231 ]
    mass: 107.868200
    reduced_to: 161
  - symbol: Ag # 173
    coordinates: [  0.499999991746568,  0.575000005523092,  0.874999990625231 ]
    mass: 107.868200
    reduced_to: 161
  - symbol: Ag # 174
    coordinates: [  0.499999991746568,  0.775000005523092,  0.874999990625231 ]
    mass: 107.868200
    reduced_to: 161
  - symbol: Ag # 175
    coordinates: [  0.499999991746568,  0.975000005523092,  0.874999990625231 ]
    mass: 107.868200
    reduced_to: 161
  - symbol: Ag # 176
    coordinates: [  0.749999991746568,  0.175000005523092,  0.874999990625231 ]
    mass: 107.868200
    reduced_to: 161
  - symbol: Ag # 177
    coordinates: [  0.749999991746568,  0.375000005523092,  0.874999990625231 ]
    mass: 107.868200
    reduced_to: 161
  - symbol: Ag # 178
    coordinates: [  0.749999991746568,  0.575000005523092,  0.874999990625231 ]
    mass: 107.868200
    reduced_to: 161
  - symbol: Ag # 179
    coordinates: [  0.749999991746568,  0.775000005523092,  0.874999990625231 ]
    mass: 107.868200
    reduced_to: 161
  - symbol: Ag # 180
    coordinates: [  0.749999991746568,  0.975000005523092,  0.874999990625231 ]
    mass: 107.868200
    reduced_to: 161
  - symbol: Ag # 181
    coordinates: [  0.999999991746568,  0.125000005523092,  0.624999990625231 ]
    mass: 107.868200
    reduced_to: 161
  - symbol: Ag # 182
    coordinates: [  0.999999991746568,  0.325000005523092,  0.624999990625231 ]
    mass: 107.868200
    reduced_to: 161
  - symbol: Ag # 183
    coordinates: [  0.999999991746568,  0.525000005523092,  0.624999990625231 ]
    mass: 107.868200
    reduced_to: 161
  - symbol: Ag # 184
    coordinates: [  0.999999991746568,  0.725000005523092,  0.624999990625231 ]
    mass: 107.868200
    reduced_to: 161
  - symbol: Ag # 185
    coordinates: [  0.999999991746568,  0.925000005523092,  0.624999990625231 ]
    mass: 107.868200
    reduced_to: 161
  - symbol: Ag # 186
    coordinates: [  0.249999991746568,  0.125000005523092,  0.624999990625231 ]
    mass: 107.868200
    reduced_to: 161
  - symbol: Ag # 187
    coordinates: [  0.249999991746568,  0.325000005523092,  0.624999990625231 ]
    mass: 107.868200
    reduced_to: 161
  - symbol: Ag # 188
    coordinates: [  0.249999991746568,  0.525000005523092,  0.624999990625231 ]
    mass: 107.868200
    reduced_to: 161
  - symbol: Ag # 189
    coordinates: [  0.249999991746568,  0.725000005523092,  0.624999990625231 ]
    mass: 107.868200
    reduced_to: 161
  - symbol: Ag # 190
    coordinates: [  0.249999991746568,  0.925000005523092,  0.624999990625231 ]
    mass: 107.868200
    reduced_to: 161
  - symbol: Ag # 191
    coordinates: [  0.499999991746568,  0.125000005523092,  0.624999990625231 ]
    mass: 107.868200
    reduced_to: 161
  - symbol: Ag # 192