phonopy:
  version: "2.27.0"
  frequency_unit_conversion_factor: 15.633302
  symmetry_tolerance: 1.00000e-03

space_group:
  type: "R-3m"
  number: 166
  Hall_symbol: "-R 3 2\""

primitive_matrix:
- [  0.666666666666667, -0.333333333333333, -0.333333333333333 ]
- [  0.333333333333333,  0.333333333333333, -0.666666666666667 ]
- [  0.333333333333333,  0.333333333333333,  0.333333333333333 ]

supercell_matrix:
- [   5,  -3,   0 ]
- [   5,   3,   0 ]
- [   0,   0,   1 ]

primitive_cell:
  lattice:
  - [     2.218793848835259,    -1.281021225901316,     7.049692424171258 ] # a
  - [     0.000000000000000,     2.562042451802648,     7.049692424171259 ] # b
  - [    -2.218793848835258,    -1.281021225901316,     7.049692424171258 ] # c
  points:
  - symbol: Ag # 1
    coordinates: [  0.999999999999999,  0.999999999999999,  0.000000000000002 ]
    mass: 107.868200
  - symbol: Bi # 2
    coordinates: [  0.500000000000001,  0.499999999999997,  0.500000000000002 ]
    mass: 208.980400
  - symbol: Te # 3
    coordinates: [  0.256197224237647,  0.256197224237649,  0.256197224237649 ]
    mass: 127.600000
  - symbol: Te # 4
    coordinates: [  0.743802775762351,  0.743802775762352,  0.743802775762353 ]
    mass: 127.600000
  reciprocal_lattice: # without 2pi
  - [     0.225347659162870,    -0.130104531678935,     0.047283386746127 ] # a*
  - [    -0.000000000000000,     0.260209063357870,     0.047283386746127 ] # b*
  - [    -0.225347659162870,    -0.130104531678935,     0.047283386746127 ] # c*

unit_cell:
  lattice:
  - [     2.218793848835258,    -3.843063677703964,    -0.000000000000003 ] # a
  - [     2.218793848835258,     3.843063677703964,     0.000000000000003 ] # b
  - [     0.000000000000001,     0.000000000000015,    21.149077272513782 ] # c
  points:
  - symbol: Ag # 1
    coordinates: [  0.000000000000000, -0.000000000000002, -0.000000000000000 ]
    mass: 107.868200
    reduced_to: 1
  - symbol: Ag # 2
    coordinates: [  0.666666666666668,  0.333333333333331,  0.333333333333333 ]
    mass: 107.868200
    reduced_to: 1
  - symbol: Ag # 3
    coordinates: [  0.333333333333335,  0.666666666666664,  0.666666666666666 ]
    mass: 107.868200
    reduced_to: 1
  - symbol: Bi # 4
    coordinates: [  0.333333333333334,  0.666666666666665,  0.166666666666667 ]
    mass: 208.980400
    reduced_to: 4
  - symbol: Bi # 5
    coordinates: [  1.000000000000002,  0.999999999999997,  0.500000000000000 ]
    mass: 208.980400
    reduced_to: 4
  - symbol: Bi # 6
    coordinates: [  0.666666666666667,  0.333333333333331,  0.833333333333333 ]
    mass: 208.980400
    reduced_to: 4
  - symbol: Te # 7
    coordinates: [ -0.000000000000000, -0.000000000000001,  0.256197224237648 ]
    mass: 127.600000
    reduced_to: 7
  - symbol: Te # 8
    coordinates: [  0.666666666666667,  0.333333333333332,  0.077136109095685 ]
    mass: 127.600000
    reduced_to: 8
  - symbol: Te # 9
    coordinates: [  0.666666666666668,  0.333333333333330,  0.589530557570981 ]
    mass: 127.600000
    reduced_to: 7
  - symbol: Te # 10
    coordinates: [  0.333333333333335,  0.666666666666664,  0.410469442429018 ]
    mass: 127.600000
    reduced_to: 8
  - symbol: Te # 11
    coordinates: [  0.333333333333334,  0.666666666666664,  0.922863890904315 ]
    mass: 127.600000
    reduced_to: 7
  - symbol: Te # 12
    coordinates: [  0.000000000000001, -0.000000000000002,  0.743802775762351 ]
    mass: 127.600000
    reduced_to: 8

supercell:
  lattice:
  - [    22.187938488352582,     0.000000000000001,     0.000000000000000 ] # a
  - [    -0.000000000000000,    23.058382066223786,     0.000000000000015 ] # b
  - [     0.000000000000001,     0.000000000000015,    21.149077272513782 ] # c
  points:
  - symbol: Ag # 1
    coordinates: [  1.000000000000000,  1.000000000000000,  1.000000000000000 ]
    mass: 107.868200
    reduced_to: 1
  - symbol: Ag # 2
    coordinates: [  0.100000000000000,  0.833333333333333,  1.000000000000000 ]
    mass: 107.868200
    reduced_to: 1
  - symbol: Ag # 3
    coordinates: [  0.200000000000000,  0.666666666666666,  1.000000000000000 ]
    mass: 107.868200
    reduced_to: 1
  - symbol: Ag # 4
    coordinates: [  0.300000000000000,  0.500000000000000,  1.000000000000000 ]
    mass: 107.868200
    reduced_to: 1
  - symbol: Ag # 5
    coordinates: [  0.400000000000000,  0.333333333333333,  1.000000000000000 ]
    mass: 107.868200
    reduced_to: 1
  - symbol: Ag # 6
    coordinates: [  0.500000000000000,  0.166666666666666,  1.000000000000000 ]
    mass: 107.868200
    reduced_to: 1
  - symbol: Ag # 7
    coordinates: [  0.600000000000000,  1.000000000000000,  1.000000000000000 ]
    mass: 107.868200
    reduced_to: 1
  - symbol: Ag # 8
    coordinates: [  0.700000000000000,  0.833333333333333,  1.000000000000000 ]
    mass: 107.868200
    reduced_to: 1
  - symbol: Ag # 9
    coordinates: [  0.100000000000000,  0.166666666666666,  1.000000000000000 ]
    mass: 107.868200
    reduced_to: 1
  - symbol: Ag # 10
    coordinates: [  0.200000000000000,  1.000000000000000,  1.000000000000000 ]
    mass: 107.868200
    reduced_to: 1
  - symbol: Ag # 11
    coordinates: [  0.300000000000000,  0.833333333333333,  1.000000000000000 ]
    mass: 107.868200
    reduced_to: 1
  - symbol: Ag # 12
    coordinates: [  0.400000000000000,  0.666666666666666,  1.000000000000000 ]
    mass: 107.868200
    reduced_to: 1
  - symbol: Ag # 13
    coordinates: [  0.500000000000000,  0.500000000000000,  1.000000000000000 ]
    mass: 107.868200
    reduced_to: 1
  - symbol: Ag # 14
    coordinates: [  0.600000000000000,  0.333333333333333,  1.000000000000000 ]
    mass: 107.868200
    reduced_to: 1
  - symbol: Ag # 15
    coordinates: [  0.700000000000000,  0.166666666666666,  1.000000000000000 ]
    mass: 107.868200
    reduced_to: 1
  - symbol: Ag # 16
    coordinates: [  0.800000000000000,  1.000000000000000,  1.000000000000000 ]
    mass: 107.868200
    reduced_to: 1
  - symbol: Ag # 17
    coordinates: [  0.200000000000000,  0.333333333333333,  1.000000000000000 ]
    mass: 107.868200
    reduced_to: 1
  - symbol: Ag # 18
    coordinates: [  0.300000000000000,  0.166666666666666,  1.000000000000000 ]
    mass: 107.868200
    reduced_to: 1
  - symbol: Ag # 19
    coordinates: [  0.400000000000000,  1.000000000000000,  1.000000000000000 ]
    mass: 107.868200
    reduced_to: 1
  - symbol: Ag # 20
    coordinates: [  0.500000000000000,  0.833333333333333,  1.000000000000000 ]
    mass: 107.868200
    reduced_to: 1
  - symbol: Ag # 21
    coordinates: [  0.600000000000000,  0.666666666666666,  1.000000000000000 ]
    mass: 107.868200
    reduced_to: 1
  - symbol: Ag # 22
    coordinates: [  0.700000000000000,  0.500000000000000,  1.000000000000000 ]
    mass: 107.868200
    reduced_to: 1
  - symbol: Ag # 23
    coordinates: [  0.800000000000000,  0.333333333333333,  1.000000000000000 ]
    mass: 107.868200
    reduced_to: 1
  - symbol: Ag # 24
    coordinates: [  0.900000000000000,  0.166666666666667,  1.000000000000000 ]
    mass: 107.868200
    reduced_to: 1
  - symbol: Ag # 25
    coordinates: [  0.800000000000000,  0.666666666666666,  1.000000000000000 ]
    mass: 107.868200
    reduced_to: 1
  - symbol: Ag # 26
    coordinates: [  0.900000000000000,  0.500000000000000,  1.000000000000000 ]
    mass: 107.868200
    reduced_to: 1
  - symbol: Ag # 27
    coordinates: [  1.000000000000000,  0.333333333333333,  1.000000000000000 ]
    mass: 107.868200
    reduced_to: 1
  - symbol: Ag # 28
    coordinates: [  0.900000000000000,  0.833333333333333,  1.000000000000000 ]
    mass: 107.868200
    reduced_to: 1
  - symbol: Ag # 29
    coordinates: [  1.000000000000000,  0.666666666666666,  1.000000000000000 ]
    mass: 107.868200
    reduced_to: 1
  - symbol: Ag # 30
    coordinates: [  0.100000000000000,  0.500000000000000,  1.000000000000000 ]
    mass: 107.868200
    reduced_to: 1
  - symbol: Ag # 31
    coordinates: [  0.100000000000000,  0.944444444444444,  0.333333333333333 ]
    mass: 107.868200
    reduced_to: 1
  - symbol: Ag # 32
    coordinates: [  0.200000000000000,  0.777777777777777,  0.333333333333333 ]
    mass: 107.868200
    reduced_to: 1
  - symbol: Ag # 33
    coordinates: [  0.300000000000000,  0.611111111111110,  0.333333333333333 ]
    mass: 107.868200
    reduced_to: 1
  - symbol: Ag # 34
    coordinates: [  0.400000000000000,  0.444444444444444,  0.333333333333333 ]
    mass: 107.868200
    reduced_to: 1
  - symbol: Ag # 35
    coordinates: [  0.500000000000000,  0.277777777777777,  0.333333333333333 ]
    mass: 107.868200
    reduced_to: 1
  - symbol: Ag # 36
    coordinates: [  0.600000000000000,  0.111111111111110,  0.333333333333333 ]
    mass: 107.868200
    reduced_to: 1
  - symbol: Ag # 37
    coordinates: [  0.700000000000000,  0.944444444444444,  0.333333333333333 ]
    mass: 107.868200
    reduced_to: 1
  - symbol: Ag # 38
    coordinates: [  0.800000000000000,  0.777777777777777,  0.333333333333333 ]
    mass: 107.868200
    reduced_to: 1
  - symbol: Ag # 39
    coordinates: [  0.200000000000000,  0.111111111111111,  0.333333333333333 ]
    mass: 107.868200
    reduced_to: 1
  - symbol: Ag # 40
    coordinates: [  0.300000000000000,  0.944444444444444,  0.333333333333333 ]
    mass: 107.868200
    reduced_to: 1
  - symbol: Ag # 41
    coordinates: [  0.400000000000000,  0.777777777777777,  0.333333333333333 ]
    mass: 107.868200
    reduced_to: 1
  - symbol: Ag # 42
    coordinates: [  0.500000000000000,  0.611111111111111,  0.333333333333333 ]
    mass: 107.868200
    reduced_to: 1
  - symbol: Ag # 43
    coordinates: [  0.600000000000000,  0.444444444444444,  0.333333333333333 ]
    mass: 107.868200
    reduced_to: 1
  - symbol: Ag # 44
    coordinates: [  0.700000000000000,  0.277777777777777,  0.333333333333333 ]
    mass: 107.868200
    reduced_to: 1
  - symbol: Ag # 45
    coordinates: [  0.800000000000000,  0.111111111111111,  0.333333333333333 ]
    mass: 107.868200
    reduced_to: 1
  - symbol: Ag # 46
    coordinates: [  0.900000000000000,  0.944444444444444,  0.333333333333333 ]
    mass: 107.868200
    reduced_to: 1
  - symbol: Ag # 47
    coordinates: [  0.300000000000000,  0.277777777777777,  0.333333333333333 ]
    mass: 107.868200
    reduced_to: 1
  - symbol: Ag # 48
    coordinates: [  0.400000000000000,  0.111111111111111,  0.333333333333333 ]
    mass: 107.868200
    reduced_to: 1
  - symbol: Ag # 49
    coordinates: [  0.500000000000000,  0.944444444444444,  0.333333333333333 ]
    mass: 107.868200
    reduced_to: 1
  - symbol: Ag # 50
    coordinates: [  0.600000000000000,  0.777777777777777,  0.333333333333333 ]
    mass: 107.868200
    reduced_to: 1
  - symbol: Ag # 51
    coordinates: [  0.700000000000000,  0.611111111111111,  0.333333333333333 ]
    mass: 107.868200
    reduced_to: 1
  - symbol: Ag # 52
    coordinates: [  0.800000000000000,  0.444444444444444,  0.333333333333333 ]
    mass: 107.868200
    reduced_to: 1
  - symbol: Ag # 53
    coordinates: [  0.900000000000000,  0.277777777777777,  0.333333333333333 ]
    mass: 107.868200
    reduced_to: 1
  - symbol: Ag # 54
    coordinates: [  0.000000000000000,  0.111111111111111,  0.333333333333333 ]
    mass: 107.868200
    reduced_to: 1
  - symbol: Ag # 55
    coordinates: [  0.900000000000000,  0.611111111111110,  0.333333333333333 ]
    mass: 107.868200
    reduced_to: 1
  - symbol: Ag # 56
    coordinates: [  0.000000000000000,  0.444444444444444,  0.333333333333333 ]
    mass: 107.868200
    reduced_to: 1
  - symbol: Ag # 57
    coordinates: [  0.100000000000000,  0.277777777777777,  0.333333333333333 ]
    mass: 107.868200
    reduced_to: 1
  - symbol: Ag # 58
    coordinates: [  1.000000000000000,  0.777777777777777,  0.333333333333333 ]
    mass: 107.868200
    reduced_to: 1
  - symbol: Ag # 59
    coordinates: [  0.100000000000000,  0.611111111111111,  0.333333333333333 ]
    mass: 107.868200
    reduced_to: 1
  - symbol: Ag # 60
    coordinates: [  0.200000000000000,  0.444444444444444,  0.333333333333333 ]
    mass: 107.868200
    reduced_to: 1
  - symbol: Ag # 61
    coordinates: [  0.100000000000000,  0.055555555555555,  0.666666666666666 ]
    mass: 107.868200
    reduced_to: 1
  - symbol: Ag # 62
    coordinates: [  0.200000000000000,  0.888888888888888,  0.666666666666666 ]
    mass: 107.868200
    reduced_to: 1
  - symbol: Ag # 63
    coordinates: [  0.300000000000000,  0.722222222222222,  0.666666666666666 ]
    mass: 107.868200
    reduced_to: 1
  - symbol: Ag # 64
    coordinates: [  0.400000000000000,  0.555555555555555,  0.666666666666666 ]
    mass: 107.868200
    reduced_to: 1
  - symbol: Ag # 65
    coordinates: [  0.500000000000000,  0.388888888888888,  0.666666666666666 ]
    mass: 107.868200
    reduced_to: 1
  - symbol: Ag # 66
    coordinates: [  0.600000000000000,  0.222222222222222,  0.666666666666666 ]
    mass: 107.868200
    reduced_to: 1
  - symbol: Ag # 67
    coordinates: [  0.700000000000000,  0.055555555555555,  0.666666666666666 ]
    mass: 107.868200
    reduced_to: 1
  - symbol: Ag # 68
    coordinates: [  0.800000000000000,  0.888888888888888,  0.666666666666666 ]
    mass: 107.868200
    reduced_to: 1
  - symbol: Ag # 69
    coordinates: [  0.200000000000000,  0.222222222222222,  0.666666666666666 ]
    mass: 107.868200
    reduced_to: 1
  - symbol: Ag # 70
    coordinates: [  0.300000000000000,  0.055555555555555,  0.666666666666666 ]
    mass: 107.868200
    reduced_to: 1
  - symbol: Ag # 71
    coordinates: [  0.400000000000000,  0.888888888888888,  0.666666666666666 ]
    mass: 107.868200
    reduced_to: 1
  - symbol: Ag # 72
    coordinates: [  0.500000000000000,  0.722222222222222,  0.666666666666666 ]
    mass: 107.868200
    reduced_to: 1
  - symbol: Ag # 73
    coordinates: [  0.600000000000000,  0.555555555555555,  0.666666666666666 ]
    mass: 107.868200
    reduced_to: 1
  - symbol: Ag # 74
    coordinates: [  0.700000000000000,  0.388888888888888,  0.666666666666666 ]
    mass: 107.868200
    reduced_to: 1
  - symbol: Ag # 75
    coordinates: [  0.800000000000000,  0.222222222222222,  0.666666666666666 ]
    mass: 107.868200
    reduced_to: 1
  - symbol: Ag # 76
    coordinates: [  0.900000000000000,  0.055555555555555,  0.666666666666666 ]
    mass: 107.868200
    reduced_to: 1
  - symbol: Ag # 77
    coordinates: [  0.300000000000000,  0.388888888888888,  0.666666666666666 ]
    mass: 107.868200
    reduced_to: 1
  - symbol: Ag # 78
    coordinates: [  0.400000000000000,  0.222222222222222,  0.666666666666666 ]
    mass: 107.868200
    reduced_to: 1
  - symbol: Ag # 79
    coordinates: [  0.500000000000000,  0.055555555555555,  0.666666666666666 ]
    mass: 107.868200
    reduced_to: 1
  - symbol: Ag # 80
    coordinates: [  0.600000000000000,  0.888888888888888,  0.666666666666666 ]
    mass: 107.868200
    reduced_to: 1
  - symbol: Ag # 81
    coordinates: [  0.700000000000000,  0.722222222222222,  0.666666666666666 ]
    mass: 107.868200
    reduced_to: 1
  - symbol: Ag # 82
    coordinates: [  0.800000000000000,  0.555555555555555,  0.666666666666666 ]
    mass: 107.868200
    reduced_to: 1
  - symbol: Ag # 83
    coordinates: [  0.900000000000000,  0.388888888888888,  0.666666666666666 ]
    mass: 107.868200
    reduced_to: 1
  - symbol: Ag # 84
    coordinates: [  1.000000000000000,  0.222222222222222,  0.666666666666666 ]
    mass: 107.868200
    reduced_to: 1
  - symbol: Ag # 85
    coordinates: [  0.900000000000000,  0.722222222222222,  0.666666666666666 ]
    mass: 107.868200
    reduced_to: 1
  - symbol: Ag # 86
    coordinates: [  1.000000000000000,  0.555555555555555,  0.666666666666666 ]
    mass: 107.868200
    reduced_to: 1
  - symbol: Ag # 87
    coordinates: [  0.100000000000000,  0.388888888888888,  0.666666666666666 ]
    mass: 107.868200
    reduced_to: 1
  - symbol: Ag # 88
    coordinates: [  0.000000000000000,  0.888888888888888,  0.666666666666666 ]
    mass: 107.868200
    reduced_to: 1
  - symbol: Ag # 89
    coordinates: [  0.100000000000000,  0.722222222222222,  0.666666666666666 ]
    mass: 107.868200
    reduced_to: 1
  - symbol: Ag # 90
    coordinates: [  0.200000000000000,  0.555555555555555,  0.666666666666666 ]
    mass: 107.868200
    reduced_to: 1
  - symbol: Bi # 91
    coordinates: [  0.100000000000000,  0.055555555555555,  0.166666666666667 ]
    mass: 208.980400
    reduced_to: 91
  - symbol: Bi # 92
    coordinates: [  0.200000000000000,  0.888888888888888,  0.166666666666667 ]
    mass: 208.980400
    reduced_to: 91
  - symbol: Bi # 93
    coordinates: [  0.300000000000000,  0.722222222222222,  0.166666666666667 ]
    mass: 208.980400
    reduced_to: 91
  - symbol: Bi # 94
    coordinates: [  0.400000000000000,  0.555555555555555,  0.166666666666667 ]
    mass: 208.980400
    reduced_to: 91
  - symbol: Bi # 95
    coordinates: [  0.500000000000000,  0.388888888888888,  0.166666666666667 ]
    mass: 208.980400
    reduced_to: 91
  - symbol: Bi # 96
    coordinates: [  0.600000000000000,  0.222222222222222,  0.166666666666667 ]
    mass: 208.980400
    reduced_to: 91
  - symbol: Bi # 97
    coordinates: [  0.700000000000000,  0.055555555555555,  0.166666666666667 ]
    mass: 208.980400
    reduced_to: 91
  - symbol: Bi # 98
    coordinates: [  0.800000000000000,  0.888888888888888,  0.166666666666667 ]
    mass: 208.980400
    reduced_to: 91
  - symbol: Bi # 99
    coordinates: [  0.200000000000000,  0.222222222222222,  0.166666666666667 ]
    mass: 208.980400
    reduced_to: 91
  - symbol: Bi # 100
    coordinates: [  0.300000000000000,  0.055555555555555,  0.166666666666667 ]
    mass: 208.980400
    reduced_to: 91
  - symbol: Bi # 101
    coordinates: [  0.400000000000000,  0.888888888888888,  0.166666666666667 ]
    mass: 208.980400
    reduced_to: 91
  - symbol: Bi # 102
    coordinates: [  0.500000000000000,  0.722222222222222,  0.166666666666667 ]
    mass: 208.980400
    reduced_to: 91
  - symbol: Bi # 103
    coordinates: [  0.600000000000000,  0.555555555555555,  0.166666666666667 ]
    mass: 208.980400
    reduced_to: 91
  - symbol: Bi # 104
    coordinates: [  0.700000000000000,  0.388888888888888,  0.166666666666667 ]
    mass: 208.980400
    reduced_to: 91
  - symbol: Bi # 105
    coordinates: [  0.800000000000000,  0.222222222222222,  0.166666666666667 ]
    mass: 208.980400
    reduced_to: 91
  - symbol: Bi # 106
    coordinates: [  0.900000000000000,  0.055555555555555,  0.166666666666667 ]
    mass: 208.980400
    reduced_to: 91
  - symbol: Bi # 107
    coordinates: [  0.300000000000000,  0.388888888888888,  0.166666666666667 ]
    mass: 208.980400
    reduced_to: 91
  - symbol: Bi # 108
    coordinates: [  0.400000000000000,  0.222222222222222,  0.166666666666667 ]
    mass: 208.980400
    reduced_to: 91
  - symbol: Bi # 109
    coordinates: [  0.500000000000000,  0.055555555555555,  0.166666666666667 ]
    mass: 208.980400
    reduced_to: 91
  - symbol: Bi # 110
    coordinates: [  0.600000000000000,  0.888888888888888,  0.166666666666667 ]
    mass: 208.980400
    reduced_to: 91
  - symbol: Bi # 111
    coordinates: [  0.700000000000000,  0.722222222222222,  0.166666666666667 ]
    mass: 208.980400
    reduced_to: 91
  - symbol: Bi # 112
    coordinates: [  0.800000000000000,  0.555555555555555,  0.166666666666667 ]
    mass: 208.980400
    reduced_to: 91
  - symbol: Bi # 113
    coordinates: [  0.900000000000000,  0.388888888888888,  0.166666666666667 ]
    mass: 208.980400
    reduced_to: 91
  - symbol: Bi # 114
    coordinates: [  0.000000000000000,  0.222222222222222,  0.166666666666667 ]
    mass: 208.980400
    reduced_to: 91
  - symbol: Bi # 115
    coordinates: [  0.900000000000000,  0.722222222222222,  0.166666666666667 ]
    mass: 208.980400
    reduced_to: 91
  - symbol: Bi # 116
    coordinates: [  0.000000000000000,  0.555555555555555,  0.166666666666667 ]
    mass: 208.980400
    reduced_to: 91
  - symbol: Bi # 117
    coordinates: [  0.100000000000000,  0.388888888888888,  0.166666666666667 ]
    mass: 208.980400
    reduced_to: 91
  - symbol: Bi # 118
    coordinates: [  0.000000000000000,  0.888888888888888,  0.166666666666667 ]
    mass: 208.980400
    reduced_to: 91
  - symbol: Bi # 119
    coordinates: [  0.100000000000000,  0.722222222222222,  0.166666666666667 ]
    mass: 208.980400
    reduced_to: 91
  - symbol: Bi # 120
    coordinates: [  0.200000000000000,  0.555555555555555,  0.166666666666667 ]
    mass: 208.980400
    reduced_to: 91
  - symbol: Bi # 121
    coordinates: [  0.200000000000000,  0.999999999999999,  0.500000000000000 ]
    mass: 208.980400
    reduced_to: 91
  - symbol: Bi # 122
    coordinates: [  0.300000000000000,  0.833333333333333,  0.500000000000000 ]
    mass: 208.980400
    reduced_to: 91
  - symbol: Bi # 123
    coordinates: [  0.400000000000000,  0.666666666666666,  0.500000000000000 ]
    mass: 208.980400
    reduced_to: 91
  - symbol: Bi # 124
    coordinates: [  0.500000000000000,  0.499999999999999,  0.500000000000000 ]
    mass: 208.980400
    reduced_to: 91
  - symbol: Bi # 125
    coordinates: [  0.600000000000000,  0.333333333333333,  0.500000000000000 ]
    mass: 208.980400
    reduced_to: 91
  - symbol: Bi # 126
    coordinates: [  0.700000000000000,  0.166666666666666,  0.500000000000000 ]
    mass: 208.980400
    reduced_to: 91
  - symbol: Bi # 127
    coordinates: [  0.800000000000000,  0.999999999999999,  0.500000000000000 ]
    mass: 208.980400
    reduced_to: 91
  - symbol: Bi # 128
    coordinates: [  0.900000000000000,  0.833333333333333,  0.500000000000000 ]
    mass: 208.980400
    reduced_to: 91
  - symbol: Bi # 129
    coordinates: [  0.300000000000000,  0.166666666666666,  0.500000000000000 ]
    mass: 208.980400
    reduced_to: 91
  - symbol: Bi # 130
    coordinates: [  0.400000000000000,  0.999999999999999,  0.500000000000000 ]
    mass: 208.980400
    reduced_to: 91
  - symbol: Bi # 131
    coordinates: [  0.500000000000000,  0.833333333333333,  0.500000000000000 ]
    mass: 208.980400
    reduced_to: 91
  - symbol: Bi # 132
    coordinates: [  0.600000000000000,  0.666666666666666,  0.500000000000000 ]
    mass: 208.980400
    reduced_to: 91
  - symbol: Bi # 133
    coordinates: [  0.700000000000000,  0.499999999999999,  0.500000000000000 ]
    mass: 208.980400
    reduced_to: 91
  - symbol: Bi # 134
    coordinates: [  0.800000000000000,  0.333333333333333,  0.500000000000000 ]
    mass: 208.980400
    reduced_to: 91
  - symbol: Bi # 135
    coordinates: [  0.900000000000000,  0.166666666666666,  0.500000000000000 ]
    mass: 208.980400
    reduced_to: 91
  - symbol: Bi # 136
    coordinates: [  0.000000000000000,  0.999999999999999,  0.500000000000000 ]
    mass: 208.980400
    reduced_to: 91
  - symbol: Bi # 137
    coordinates: [  0.400000000000000,  0.333333333333333,  0.500000000000000 ]
    mass: 208.980400
    reduced_to: 91
  - symbol: Bi # 138
    coordinates: [  0.500000000000000,  0.166666666666666,  0.500000000000000 ]
    mass: 208.980400
    reduced_to: 91
  - symbol: Bi # 139
    coordinates: [  0.600000000000000,  0.999999999999999,  0.500000000000000 ]
    mass: 208.980400
    reduced_to: 91
  - symbol: Bi # 140
    coordinates: [  0.700000000000000,  0.833333333333333,  0.500000000000000 ]
    mass: 208.980400
    reduced_to: 91
  - symbol: Bi # 141
    coordinates: [  0.800000000000000,  0.666666666666666,  0.500000000000000 ]
    mass: 208.980400
    reduced_to: 91
  - symbol: Bi # 142
    coordinates: [  0.900000000000000,  0.499999999999999,  0.500000000000000 ]
    mass: 208.980400
    reduced_to: 91
  - symbol: Bi # 143
    coordinates: [  1.000000000000000,  0.333333333333333,  0.500000000000000 ]
    mass: 208.980400
    reduced_to: 91
  - symbol: Bi # 144
    coordinates: [  0.100000000000000,  0.166666666666666,  0.500000000000000 ]
    mass: 208.980400
    reduced_to: 91
  - symbol: Bi # 145
    coordinates: [  0.000000000000000,  0.666666666666666,  0.500000000000000 ]
    mass: 208.980400
    reduced_to: 91
  - symbol: Bi # 146
    coordinates: [  0.100000000000000,  0.499999999999999,  0.500000000000000 ]
    mass: 208.980400
    reduced_to: 91
  - symbol: Bi # 147
    coordinates: [  0.200000000000000,  0.333333333333333,  0.500000000000000 ]
    mass: 208.980400
    reduced_to: 91
  - symbol: Bi # 148
    coordinates: [  0.100000000000000,  0.833333333333333,  0.500000000000000 ]
    mass: 208.980400
    reduced_to: 91
  - symbol: Bi # 149
    coordinates: [  0.200000000000000,  0.666666666666666,  0.500000000000000 ]
    mass: 208.980400
    reduced_to: 91
  - symbol: Bi # 150
    coordinates: [  0.300000000000000,  0.499999999999999,  0.500000000000000 ]
    mass: 208.980400
    reduced_to: 91
  - symbol: Bi # 151
    coordinates: [  0.100000000000000,  0.944444444444444,  0.833333333333333 ]
    mass: 208.980400
    reduced_to: 91
  - symbol: Bi # 152
    coordinates: [  0.200000000000000,  0.777777777777777,  0.833333333333333 ]
    mass: 208.980400
    reduced_to: 91
  - symbol: Bi # 153
    coordinates: [  0.300000000000000,  0.611111111111111,  0.833333333333333 ]
    mass: 208.980400
    reduced_to: 91
  - symbol: Bi # 154
    coordinates: [  0.400000000000000,  0.444444444444444,  0.833333333333333 ]
    mass: 208.980400
    reduced_to: 91
  - symbol: Bi # 155
    coordinates: [  0.500000000000000,  0.277777777777777,  0.833333333333333 ]
    mass: 208.980400
    reduced_to: 91
  - symbol: Bi # 156
    coordinates: [  0.600000000000000,  0.111111111111111,  0.833333333333333 ]
    mass: 208.980400
    reduced_to: 91
  - symbol: Bi # 157
    coordinates: [  0.700000000000000,  0.944444444444444,  0.833333333333333 ]
    mass: 208.980400
    reduced_to: 91
  - symbol: Bi # 158
    coordinates: [  0.800000000000000,  0.777777777777777,  0.833333333333333 ]
    mass: 208.980400
    reduced_to: 91
  - symbol: Bi # 159
    coordinates: [  0.200000000000000,  0.111111111111111,  0.833333333333333 ]
    mass: 208.980400
    reduced_to: 91
  - symbol: Bi # 160
    coordinates: [  0.300000000000000,  0.944444444444444,  0.833333333333333 ]
    mass: 208.980400
    reduced_to: 91
  - symbol: Bi # 161
    coordinates: [  0.400000000000000,  0.777777777777777,  0.833333333333333 ]
    mass: 208.980400
    reduced_to: 91
  - symbol: Bi # 162
    coordinates: [  0.500000000000000,  0.611111111111111,  0.833333333333333 ]
    mass: 208.980400
    reduced_to: 91
  - symbol: Bi # 163
    coordinates: [  0.600000000000000,  0.444444444444444,  0.833333333333333 ]
    mass: 208.980400
    reduced_to: 91
  - symbol: Bi # 164
    coordinates: [  0.700000000000000,  0.277777777777777,  0.833333333333333 ]
    mass: 208.980400
    reduced_to: 91
  - symbol: Bi # 165
    coordinates: [  0.800000000000000,  0.111111111111111,  0.833333333333333 ]
    mass: 208.980400
    reduced_to: 91
  - symbol: Bi # 166
    coordinates: [  0.900000000000000,  0.944444444444444,  0.833333333333333 ]
    mass: 208.980400
    reduced_to: 91
  - symbol: Bi # 167
    coordinates: [  0.300000000000000,  0.277777777777777,  0.833333333333333 ]
    mass: 208.980400
    reduced_to: 91
  - symbol: Bi # 168
    coordinates: [  0.400000000000000,  0.111111111111111,  0.833333333333333 ]
    mass: 208.980400
    reduced_to: 91
  - symbol: Bi # 169
    coordinates: [  0.500000000000000,  0.944444444444444,  0.833333333333333 ]
    mass: 208.980400
    reduced_to: 91
  - symbol: Bi # 170
    coordinates: [  0.600000000000000,  0.777777777777777,  0.833333333333333 ]
    mass: 208.980400
    reduced_to: 91
  - symbol: Bi # 171
    coordinates: [  0.700000000000000,  0.611111111111111,  0.833333333333333 ]
    mass: 208.980400
    reduced_to: 91
  - symbol: Bi # 172
    coordinates: [  0.800000000000000,  0.444444444444444,  0.833333333333333 ]
    mass: 208.980400
    reduced_to: 91
  - symbol: Bi # 173
    coordinates: [  0.900000000000000,  0.277777777777777,  0.833333333333333 ]
    mass: 208.980400
    reduced_to: 91
  - symbol: Bi # 174
    coordinates: [  1.000000000000000,  0.111111111111111,  0.833333333333333 ]
    mass: 208.980400
    reduced_to: 91
  - symbol: Bi # 175
    coordinates: [  0.900000000000000,  0.611111111111111,  0.833333333333333 ]
    mass: 208.980400
    reduced_to: 91
  - symbol: Bi # 176
    coordinates: [  1.000000000000000,  0.444444444444444,  0.833333333333333 ]
    mass: 208.980400
    reduced_to: 91
  - symbol: Bi # 177
    coordinates: [  0.100000000000000,  0.277777777777777,  0.833333333333333 ]
    mass: 208.980400
    reduced_to: 91
  - symbol: Bi # 178
    coordinates: [  1.000000000000000,  0.777777777777777,  0.833333333333333 ]
    mass: 208.980400
    reduced_to: 91
  - symbol: Bi # 179
    coordinates: [  0.100000000000000,  0.611111111111110,  0.833333333333333 ]
    mass: 208.980400
    reduced_to: 91
  - symbol: Bi # 180
    coordinates: [  0.200000000000000,  0.444444444444444,  0.833333333333333 ]
    mass: 208.980400
    reduced_to: 91
  - symbol: Te # 181
    coordinates: [  1.000000000000000,  1.000000000000000,  0.256197224237648 ]
    mass: 127.600000
    reduced_to: 181
  - symbol: Te # 182
    coordinates: [  0.100000000000000,  0.833333333333333,  0.256197224237648 ]
    mass: 127.600000
    reduced_to: 181
  - symbol: Te # 183
    coordinates: [  0.200000000000000,  0.666666666666667,  0.256197224237648 ]
    mass: 127.600000
    reduced_to: 181
  - symbol: Te # 184
    coordinates: [  0.300000000000000,  0.500000000000000,  0.256197224237648 ]
    mass: 127.600000
    reduced_to: 181
  - symbol: Te # 185
    coordinates: [  0.400000000000000,  0.333333333333333,  0.256197224237648 ]
    mass: 127.600000
    reduced_to: 181
  - symbol: Te # 186
    coordinates: [  0.500000000000000,  0.166666666666667,  0.256197224237648 ]
    mass: 127.600000
    reduced_to: 181
  - symbol: Te # 187
    coordinates: [  0.600000000000000,  1.000000000000000,  0.256197224237648 ]
    mass: 127.600000
    reduced_to: 181
  - symbol: Te # 188
    coordinates: [  0.700000000000000,  0.833333333333333,  0.256197224237648 ]