phonopy:
  version: "2.27.0"
  frequency_unit_conversion_factor: 15.633302
  symmetry_tolerance: 1.00000e-04

space_group:
  type: "R-3m"
  number: 166
  Hall_symbol: "-R 3 2\""

primitive_matrix:
- [  0.666666666666667, -0.333333333333333, -0.333333333333333 ]
- [  0.333333333333333,  0.333333333333333, -0.666666666666667 ]
- [  0.333333333333333,  0.333333333333333,  0.333333333333333 ]

supercell_matrix:
- [   5,   5,   0 ]
- [  -3,   3,   0 ]
- [   0,   0,   1 ]

primitive_cell:
  lattice:
  - [     2.218793848835258,    -1.281021225901314,     7.049692424171260 ] # a
  - [     0.000000000000000,     2.562042451802632,     7.049692424171261 ] # b
  - [    -2.218793848835258,    -1.281021225901314,     7.049692424171260 ] # c
  points:
  - symbol: Ag # 1
    coordinates: [  0.000000000000000,  0.999999999999996,  0.000000000000001 ]
    mass: 107.868200
  - symbol: Bi # 2
    coordinates: [  0.500000000000001,  0.499999999999996,  0.500000000000002 ]
    mass: 208.980400
  - symbol: Te # 3
    coordinates: [  0.256197224237647,  0.256197224237647,  0.256197224237648 ]
    mass: 127.600000
  - symbol: Te # 4
    coordinates: [  0.743802775762351,  0.743802775762350,  0.743802775762352 ]
    mass: 127.600000
  reciprocal_lattice: # without 2pi
  - [     0.225347659162870,    -0.130104531678936,     0.047283386746127 ] # a*
  - [     0.000000000000000,     0.260209063357871,     0.047283386746127 ] # b*
  - [    -0.225347659162870,    -0.130104531678936,     0.047283386746127 ] # c*

unit_cell:
  lattice:
  - [     2.218793848835258,    -3.843063677703945,    -0.000000000000001 ] # a
  - [     2.218793848835258,     3.843063677703945,     0.000000000000001 ] # b
  - [    -0.000000000000000,     0.000000000000004,    21.149077272513782 ] # c
  points:
  - symbol: Ag # 1
    coordinates: [  0.000000000000001, -0.000000000000002, -0.000000000000001 ]
    mass: 107.868200
    reduced_to: 1
  - symbol: Ag # 2
    coordinates: [  0.666666666666668,  0.333333333333331,  0.333333333333333 ]
    mass: 107.868200
    reduced_to: 1
  - symbol: Ag # 3
    coordinates: [  0.333333333333335,  0.666666666666664,  0.666666666666666 ]
    mass: 107.868200
    reduced_to: 1
  - symbol: Bi # 4
    coordinates: [  0.333333333333335,  0.666666666666664,  0.166666666666666 ]
    mass: 208.980400
    reduced_to: 4
  - symbol: Bi # 5
    coordinates: [  1.000000000000002,  0.999999999999997,  0.499999999999999 ]
    mass: 208.980400
    reduced_to: 4
  - symbol: Bi # 6
    coordinates: [  0.666666666666668,  0.333333333333331,  0.833333333333333 ]
    mass: 208.980400
    reduced_to: 4
  - symbol: Te # 7
    coordinates: [ -0.000000000000000, -0.000000000000001,  0.256197224237648 ]
    mass: 127.600000
    reduced_to: 7
  - symbol: Te # 8
    coordinates: [  0.666666666666667,  0.333333333333332,  0.077136109095685 ]
    mass: 127.600000
    reduced_to: 8
  - symbol: Te # 9
    coordinates: [  0.666666666666668,  0.333333333333330,  0.589530557570981 ]
    mass: 127.600000
    reduced_to: 7
  - symbol: Te # 10
    coordinates: [  0.333333333333335,  0.666666666666663,  0.410469442429018 ]
    mass: 127.600000
    reduced_to: 8
  - symbol: Te # 11
    coordinates: [  0.333333333333335,  0.666666666666664,  0.922863890904314 ]
    mass: 127.600000
    reduced_to: 7
  - symbol: Te # 12
    coordinates: [  0.000000000000001, -0.000000000000003,  0.743802775762351 ]
    mass: 127.600000
    reduced_to: 8

supercell:
  lattice:
  - [     4.437587697670516,   -30.744509421631562,    -0.000000000000004 ] # a
  - [    17.750350790682067,    -7.686127355407891,    -0.000000000000001 ] # b
  - [    -0.000000000000000,     0.000000000000004,    21.149077272513782 ] # c
  points:
  - symbol: Ag # 1
    coordinates: [  0.000000000000000,  1.000000000000000,  0.999999999999999 ]
    mass: 107.868200
    reduced_to: 1
  - symbol: Ag # 2
    coordinates: [  0.100000000000000,  0.100000000000000,  0.999999999999999 ]
    mass: 107.868200
    reduced_to: 1
  - symbol: Ag # 3
    coordinates: [  0.200000000000000,  0.200000000000000,  0.999999999999999 ]
    mass: 107.868200
    reduced_to: 1
  - symbol: Ag # 4
    coordinates: [  0.300000000000000,  0.300000000000000,  0.999999999999999 ]
    mass: 107.868200
    reduced_to: 1
  - symbol: Ag # 5
    coordinates: [  0.400000000000000,  0.400000000000000,  0.999999999999999 ]
    mass: 107.868200
    reduced_to: 1
  - symbol: Ag # 6
    coordinates: [  0.500000000000000,  0.500000000000000,  0.999999999999999 ]
    mass: 107.868200
    reduced_to: 1
  - symbol: Ag # 7
    coordinates: [  0.600000000000000,  0.600000000000000,  0.999999999999999 ]
    mass: 107.868200
    reduced_to: 1
  - symbol: Ag # 8
    coordinates: [  0.700000000000001,  0.700000000000000,  0.999999999999999 ]
    mass: 107.868200
    reduced_to: 1
  - symbol: Ag # 9
    coordinates: [  0.800000000000000,  0.800000000000000,  0.999999999999999 ]
    mass: 107.868200
    reduced_to: 1
  - symbol: Ag # 10
    coordinates: [  0.900000000000000,  0.900000000000000,  0.999999999999999 ]
    mass: 107.868200
    reduced_to: 1
  - symbol: Ag # 11
    coordinates: [  0.833333333333334,  0.166666666666666,  0.999999999999999 ]
    mass: 107.868200
    reduced_to: 1
  - symbol: Ag # 12
    coordinates: [  0.933333333333334,  0.266666666666666,  0.999999999999999 ]
    mass: 107.868200
    reduced_to: 1
  - symbol: Ag # 13
    coordinates: [  0.033333333333334,  0.366666666666666,  0.999999999999999 ]
    mass: 107.868200
    reduced_to: 1
  - symbol: Ag # 14
    coordinates: [  0.133333333333334,  0.466666666666666,  0.999999999999999 ]
    mass: 107.868200
    reduced_to: 1
  - symbol: Ag # 15
    coordinates: [  0.233333333333334,  0.566666666666666,  0.999999999999999 ]
    mass: 107.868200
    reduced_to: 1
  - symbol: Ag # 16
    coordinates: [  0.333333333333334,  0.666666666666666,  0.999999999999999 ]
    mass: 107.868200
    reduced_to: 1
  - symbol: Ag # 17
    coordinates: [  0.433333333333334,  0.766666666666666,  0.999999999999999 ]
    mass: 107.868200
    reduced_to: 1
  - symbol: Ag # 18
    coordinates: [  0.533333333333334,  0.866666666666666,  0.999999999999999 ]
    mass: 107.868200
    reduced_to: 1
  - symbol: Ag # 19
    coordinates: [  0.633333333333334,  0.966666666666666,  0.999999999999999 ]
    mass: 107.868200
    reduced_to: 1
  - symbol: Ag # 20
    coordinates: [  0.733333333333334,  0.066666666666666,  0.999999999999999 ]
    mass: 107.868200
    reduced_to: 1
  - symbol: Ag # 21
    coordinates: [  0.666666666666667,  0.333333333333333,  0.999999999999999 ]
    mass: 107.868200
    reduced_to: 1
  - symbol: Ag # 22
    coordinates: [  0.766666666666667,  0.433333333333333,  0.999999999999999 ]
    mass: 107.868200
    reduced_to: 1
  - symbol: Ag # 23
    coordinates: [  0.866666666666667,  0.533333333333333,  0.999999999999999 ]
    mass: 107.868200
    reduced_to: 1
  - symbol: Ag # 24
    coordinates: [  0.966666666666667,  0.633333333333333,  0.999999999999999 ]
    mass: 107.868200
    reduced_to: 1
  - symbol: Ag # 25
    coordinates: [  0.066666666666667,  0.733333333333333,  0.999999999999999 ]
    mass: 107.868200
    reduced_to: 1
  - symbol: Ag # 26
    coordinates: [  0.166666666666667,  0.833333333333333,  0.999999999999999 ]
    mass: 107.868200
    reduced_to: 1
  - symbol: Ag # 27
    coordinates: [  0.266666666666667,  0.933333333333333,  0.999999999999999 ]
    mass: 107.868200
    reduced_to: 1
  - symbol: Ag # 28
    coordinates: [  0.366666666666667,  0.033333333333333,  0.999999999999999 ]
    mass: 107.868200
    reduced_to: 1
  - symbol: Ag # 29
    coordinates: [  0.466666666666667,  0.133333333333333,  0.999999999999999 ]
    mass: 107.868200
    reduced_to: 1
  - symbol: Ag # 30
    coordinates: [  0.566666666666667,  0.233333333333333,  0.999999999999999 ]
    mass: 107.868200
    reduced_to: 1
  - symbol: Ag # 31
    coordinates: [  0.011111111111112,  0.122222222222222,  0.333333333333333 ]
    mass: 107.868200
    reduced_to: 1
  - symbol: Ag # 32
    coordinates: [  0.111111111111112,  0.222222222222222,  0.333333333333333 ]
    mass: 107.868200
    reduced_to: 1
  - symbol: Ag # 33
    coordinates: [  0.211111111111112,  0.322222222222222,  0.333333333333333 ]
    mass: 107.868200
    reduced_to: 1
  - symbol: Ag # 34
    coordinates: [  0.311111111111112,  0.422222222222222,  0.333333333333333 ]
    mass: 107.868200
    reduced_to: 1
  - symbol: Ag # 35
    coordinates: [  0.411111111111112,  0.522222222222222,  0.333333333333333 ]
    mass: 107.868200
    reduced_to: 1
  - symbol: Ag # 36
    coordinates: [  0.511111111111112,  0.622222222222222,  0.333333333333333 ]
    mass: 107.868200
    reduced_to: 1
  - symbol: Ag # 37
    coordinates: [  0.611111111111112,  0.722222222222222,  0.333333333333333 ]
    mass: 107.868200
    reduced_to: 1
  - symbol: Ag # 38
    coordinates: [  0.711111111111112,  0.822222222222222,  0.333333333333333 ]
    mass: 107.868200
    reduced_to: 1
  - symbol: Ag # 39
    coordinates: [  0.811111111111112,  0.922222222222222,  0.333333333333333 ]
    mass: 107.868200
    reduced_to: 1
  - symbol: Ag # 40
    coordinates: [  0.911111111111112,  0.022222222222222,  0.333333333333333 ]
    mass: 107.868200
    reduced_to: 1
  - symbol: Ag # 41
    coordinates: [  0.844444444444445,  0.288888888888889,  0.333333333333333 ]
    mass: 107.868200
    reduced_to: 1
  - symbol: Ag # 42
    coordinates: [  0.944444444444445,  0.388888888888889,  0.333333333333333 ]
    mass: 107.868200
    reduced_to: 1
  - symbol: Ag # 43
    coordinates: [  0.044444444444445,  0.488888888888889,  0.333333333333333 ]
    mass: 107.868200
    reduced_to: 1
  - symbol: Ag # 44
    coordinates: [  0.144444444444445,  0.588888888888889,  0.333333333333333 ]
    mass: 107.868200
    reduced_to: 1
  - symbol: Ag # 45
    coordinates: [  0.244444444444445,  0.688888888888889,  0.333333333333333 ]
    mass: 107.868200
    reduced_to: 1
  - symbol: Ag # 46
    coordinates: [  0.344444444444445,  0.788888888888889,  0.333333333333333 ]
    mass: 107.868200
    reduced_to: 1
  - symbol: Ag # 47
    coordinates: [  0.444444444444445,  0.888888888888889,  0.333333333333333 ]
    mass: 107.868200
    reduced_to: 1
  - symbol: Ag # 48
    coordinates: [  0.544444444444445,  0.988888888888889,  0.333333333333333 ]
    mass: 107.868200
    reduced_to: 1
  - symbol: Ag # 49
    coordinates: [  0.644444444444445,  0.088888888888889,  0.333333333333333 ]
    mass: 107.868200
    reduced_to: 1
  - symbol: Ag # 50
    coordinates: [  0.744444444444445,  0.188888888888889,  0.333333333333333 ]
    mass: 107.868200
    reduced_to: 1
  - symbol: Ag # 51
    coordinates: [  0.677777777777778,  0.455555555555555,  0.333333333333333 ]
    mass: 107.868200
    reduced_to: 1
  - symbol: Ag # 52
    coordinates: [  0.777777777777778,  0.555555555555555,  0.333333333333333 ]
    mass: 107.868200
    reduced_to: 1
  - symbol: Ag # 53
    coordinates: [  0.877777777777778,  0.655555555555555,  0.333333333333333 ]
    mass: 107.868200
    reduced_to: 1
  - symbol: Ag # 54
    coordinates: [  0.977777777777778,  0.755555555555555,  0.333333333333333 ]
    mass: 107.868200
    reduced_to: 1
  - symbol: Ag # 55
    coordinates: [  0.077777777777778,  0.855555555555555,  0.333333333333333 ]
    mass: 107.868200
    reduced_to: 1
  - symbol: Ag # 56
    coordinates: [  0.177777777777778,  0.955555555555555,  0.333333333333333 ]
    mass: 107.868200
    reduced_to: 1
  - symbol: Ag # 57
    coordinates: [  0.277777777777778,  0.055555555555555,  0.333333333333333 ]
    mass: 107.868200
    reduced_to: 1
  - symbol: Ag # 58
    coordinates: [  0.377777777777778,  0.155555555555555,  0.333333333333333 ]
    mass: 107.868200
    reduced_to: 1
  - symbol: Ag # 59
    coordinates: [  0.477777777777778,  0.255555555555555,  0.333333333333333 ]
    mass: 107.868200
    reduced_to: 1
  - symbol: Ag # 60
    coordinates: [  0.577777777777778,  0.355555555555555,  0.333333333333333 ]
    mass: 107.868200
    reduced_to: 1
  - symbol: Ag # 61
    coordinates: [  0.922222222222223,  0.144444444444444,  0.666666666666666 ]
    mass: 107.868200
    reduced_to: 1
  - symbol: Ag # 62
    coordinates: [  0.022222222222223,  0.244444444444444,  0.666666666666666 ]
    mass: 107.868200
    reduced_to: 1
  - symbol: Ag # 63
    coordinates: [  0.122222222222223,  0.344444444444444,  0.666666666666666 ]
    mass: 107.868200
    reduced_to: 1
  - symbol: Ag # 64
    coordinates: [  0.222222222222223,  0.444444444444444,  0.666666666666666 ]
    mass: 107.868200
    reduced_to: 1
  - symbol: Ag # 65
    coordinates: [  0.322222222222223,  0.544444444444444,  0.666666666666666 ]
    mass: 107.868200
    reduced_to: 1
  - symbol: Ag # 66
    coordinates: [  0.422222222222223,  0.644444444444444,  0.666666666666666 ]
    mass: 107.868200
    reduced_to: 1
  - symbol: Ag # 67
    coordinates: [  0.522222222222223,  0.744444444444444,  0.666666666666666 ]
    mass: 107.868200
    reduced_to: 1
  - symbol: Ag # 68
    coordinates: [  0.622222222222223,  0.844444444444444,  0.666666666666666 ]
    mass: 107.868200
    reduced_to: 1
  - symbol: Ag # 69
    coordinates: [  0.722222222222223,  0.944444444444444,  0.666666666666666 ]
    mass: 107.868200
    reduced_to: 1
  - symbol: Ag # 70
    coordinates: [  0.822222222222223,  0.044444444444444,  0.666666666666666 ]
    mass: 107.868200
    reduced_to: 1
  - symbol: Ag # 71
    coordinates: [  0.755555555555556,  0.311111111111111,  0.666666666666666 ]
    mass: 107.868200
    reduced_to: 1
  - symbol: Ag # 72
    coordinates: [  0.855555555555556,  0.411111111111111,  0.666666666666666 ]
    mass: 107.868200
    reduced_to: 1
  - symbol: Ag # 73
    coordinates: [  0.955555555555556,  0.511111111111111,  0.666666666666666 ]
    mass: 107.868200
    reduced_to: 1
  - symbol: Ag # 74
    coordinates: [  0.055555555555556,  0.611111111111111,  0.666666666666666 ]
    mass: 107.868200
    reduced_to: 1
  - symbol: Ag # 75
    coordinates: [  0.155555555555556,  0.711111111111111,  0.666666666666666 ]
    mass: 107.868200
    reduced_to: 1
  - symbol: Ag # 76
    coordinates: [  0.255555555555556,  0.811111111111111,  0.666666666666666 ]
    mass: 107.868200
    reduced_to: 1
  - symbol: Ag # 77
    coordinates: [  0.355555555555556,  0.911111111111111,  0.666666666666666 ]
    mass: 107.868200
    reduced_to: 1
  - symbol: Ag # 78
    coordinates: [  0.455555555555556,  0.011111111111111,  0.666666666666666 ]
    mass: 107.868200
    reduced_to: 1
  - symbol: Ag # 79
    coordinates: [  0.555555555555556,  0.111111111111111,  0.666666666666666 ]
    mass: 107.868200
    reduced_to: 1
  - symbol: Ag # 80
    coordinates: [  0.655555555555556,  0.211111111111111,  0.666666666666666 ]
    mass: 107.868200
    reduced_to: 1
  - symbol: Ag # 81
    coordinates: [  0.588888888888889,  0.477777777777777,  0.666666666666666 ]
    mass: 107.868200
    reduced_to: 1
  - symbol: Ag # 82
    coordinates: [  0.688888888888890,  0.577777777777778,  0.666666666666666 ]
    mass: 107.868200
    reduced_to: 1
  - symbol: Ag # 83
    coordinates: [  0.788888888888890,  0.677777777777777,  0.666666666666666 ]
    mass: 107.868200
    reduced_to: 1
  - symbol: Ag # 84
    coordinates: [  0.888888888888890,  0.777777777777777,  0.666666666666666 ]
    mass: 107.868200
    reduced_to: 1
  - symbol: Ag # 85
    coordinates: [  0.988888888888890,  0.877777777777778,  0.666666666666666 ]
    mass: 107.868200
    reduced_to: 1
  - symbol: Ag # 86
    coordinates: [  0.088888888888890,  0.977777777777778,  0.666666666666666 ]
    mass: 107.868200
    reduced_to: 1
  - symbol: Ag # 87
    coordinates: [  0.188888888888890,  0.077777777777778,  0.666666666666666 ]
    mass: 107.868200
    reduced_to: 1
  - symbol: Ag # 88
    coordinates: [  0.288888888888890,  0.177777777777778,  0.666666666666666 ]
    mass: 107.868200
    reduced_to: 1
  - symbol: Ag # 89
    coordinates: [  0.388888888888890,  0.277777777777777,  0.666666666666666 ]
    mass: 107.868200
    reduced_to: 1
  - symbol: Ag # 90
    coordinates: [  0.488888888888889,  0.377777777777777,  0.666666666666666 ]
    mass: 107.868200
    reduced_to: 1
  - symbol: Bi # 91
    coordinates: [  0.922222222222223,  0.144444444444444,  0.166666666666666 ]
    mass: 208.980400
    reduced_to: 91
  - symbol: Bi # 92
    coordinates: [  0.022222222222223,  0.244444444444444,  0.166666666666666 ]
    mass: 208.980400
    reduced_to: 91
  - symbol: Bi # 93
    coordinates: [  0.122222222222223,  0.344444444444444,  0.166666666666666 ]
    mass: 208.980400
    reduced_to: 91
  - symbol: Bi # 94
    coordinates: [  0.222222222222223,  0.444444444444444,  0.166666666666666 ]
    mass: 208.980400
    reduced_to: 91
  - symbol: Bi # 95
    coordinates: [  0.322222222222223,  0.544444444444444,  0.166666666666666 ]
    mass: 208.980400
    reduced_to: 91
  - symbol: Bi # 96
    coordinates: [  0.422222222222223,  0.644444444444444,  0.166666666666666 ]
    mass: 208.980400
    reduced_to: 91
  - symbol: Bi # 97
    coordinates: [  0.522222222222223,  0.744444444444444,  0.166666666666666 ]
    mass: 208.980400
    reduced_to: 91
  - symbol: Bi # 98
    coordinates: [  0.622222222222223,  0.844444444444444,  0.166666666666666 ]
    mass: 208.980400
    reduced_to: 91
  - symbol: Bi # 99
    coordinates: [  0.722222222222223,  0.944444444444444,  0.166666666666666 ]
    mass: 208.980400
    reduced_to: 91
  - symbol: Bi # 100
    coordinates: [  0.822222222222223,  0.044444444444444,  0.166666666666666 ]
    mass: 208.980400
    reduced_to: 91
  - symbol: Bi # 101
    coordinates: [  0.755555555555556,  0.311111111111111,  0.166666666666666 ]
    mass: 208.980400
    reduced_to: 91
  - symbol: Bi # 102
    coordinates: [  0.855555555555556,  0.411111111111111,  0.166666666666666 ]
    mass: 208.980400
    reduced_to: 91
  - symbol: Bi # 103
    coordinates: [  0.955555555555556,  0.511111111111111,  0.166666666666666 ]
    mass: 208.980400
    reduced_to: 91
  - symbol: Bi # 104
    coordinates: [  0.055555555555556,  0.611111111111111,  0.166666666666666 ]
    mass: 208.980400
    reduced_to: 91
  - symbol: Bi # 105
    coordinates: [  0.155555555555556,  0.711111111111111,  0.166666666666666 ]
    mass: 208.980400
    reduced_to: 91
  - symbol: Bi # 106
    coordinates: [  0.255555555555556,  0.811111111111111,  0.166666666666666 ]
    mass: 208.980400
    reduced_to: 91
  - symbol: Bi # 107
    coordinates: [  0.355555555555556,  0.911111111111111,  0.166666666666666 ]
    mass: 208.980400
    reduced_to: 91
  - symbol: Bi # 108
    coordinates: [  0.455555555555556,  0.011111111111111,  0.166666666666666 ]
    mass: 208.980400
    reduced_to: 91
  - symbol: Bi # 109
    coordinates: [  0.555555555555556,  0.111111111111111,  0.166666666666666 ]
    mass: 208.980400
    reduced_to: 91
  - symbol: Bi # 110
    coordinates: [  0.655555555555556,  0.211111111111111,  0.166666666666666 ]
    mass: 208.980400
    reduced_to: 91
  - symbol: Bi # 111
    coordinates: [  0.588888888888889,  0.477777777777778,  0.166666666666666 ]
    mass: 208.980400
    reduced_to: 91
  - symbol: Bi # 112
    coordinates: [  0.688888888888889,  0.577777777777778,  0.166666666666666 ]
    mass: 208.980400
    reduced_to: 91
  - symbol: Bi # 113
    coordinates: [  0.788888888888889,  0.677777777777778,  0.166666666666666 ]
    mass: 208.980400
    reduced_to: 91
  - symbol: Bi # 114
    coordinates: [  0.888888888888890,  0.777777777777777,  0.166666666666666 ]
    mass: 208.980400
    reduced_to: 91
  - symbol: Bi # 115
    coordinates: [  0.988888888888889,  0.877777777777778,  0.166666666666666 ]
    mass: 208.980400
    reduced_to: 91
  - symbol: Bi # 116
    coordinates: [  0.088888888888890,  0.977777777777778,  0.166666666666666 ]
    mass: 208.980400
    reduced_to: 91
  - symbol: Bi # 117
    coordinates: [  0.188888888888889,  0.077777777777778,  0.166666666666666 ]
    mass: 208.980400
    reduced_to: 91
  - symbol: Bi # 118
    coordinates: [  0.288888888888889,  0.177777777777778,  0.166666666666666 ]
    mass: 208.980400
    reduced_to: 91
  - symbol: Bi # 119
    coordinates: [  0.388888888888889,  0.277777777777777,  0.166666666666666 ]
    mass: 208.980400
    reduced_to: 91
  - symbol: Bi # 120
    coordinates: [  0.488888888888889,  0.377777777777778,  0.166666666666666 ]
    mass: 208.980400
    reduced_to: 91
  - symbol: Bi # 121
    coordinates: [  0.933333333333334,  0.266666666666666,  0.499999999999999 ]
    mass: 208.980400
    reduced_to: 91
  - symbol: Bi # 122
    coordinates: [  0.033333333333334,  0.366666666666666,  0.499999999999999 ]
    mass: 208.980400
    reduced_to: 91
  - symbol: Bi # 123
    coordinates: [  0.133333333333334,  0.466666666666666,  0.499999999999999 ]
    mass: 208.980400
    reduced_to: 91
  - symbol: Bi # 124
    coordinates: [  0.233333333333334,  0.566666666666666,  0.499999999999999 ]
    mass: 208.980400
    reduced_to: 91
  - symbol: Bi # 125
    coordinates: [  0.333333333333334,  0.666666666666667,  0.499999999999999 ]
    mass: 208.980400
    reduced_to: 91
  - symbol: Bi # 126
    coordinates: [  0.433333333333334,  0.766666666666666,  0.499999999999999 ]
    mass: 208.980400
    reduced_to: 91
  - symbol: Bi # 127
    coordinates: [  0.533333333333334,  0.866666666666666,  0.499999999999999 ]
    mass: 208.980400
    reduced_to: 91
  - symbol: Bi # 128
    coordinates: [  0.633333333333334,  0.966666666666667,  0.499999999999999 ]
    mass: 208.980400
    reduced_to: 91
  - symbol: Bi # 129
    coordinates: [  0.733333333333334,  0.066666666666666,  0.499999999999999 ]
    mass: 208.980400
    reduced_to: 91
  - symbol: Bi # 130
    coordinates: [  0.833333333333334,  0.166666666666667,  0.499999999999999 ]
    mass: 208.980400
    reduced_to: 91
  - symbol: Bi # 131
    coordinates: [  0.766666666666667,  0.433333333333333,  0.499999999999999 ]
    mass: 208.980400
    reduced_to: 91
  - symbol: Bi # 132
    coordinates: [  0.866666666666667,  0.533333333333333,  0.499999999999999 ]
    mass: 208.980400
    reduced_to: 91
  - symbol: Bi # 133
    coordinates: [  0.966666666666667,  0.633333333333333,  0.499999999999999 ]
    mass: 208.980400
    reduced_to: 91
  - symbol: Bi # 134
    coordinates: [  0.066666666666667,  0.733333333333333,  0.499999999999999 ]
    mass: 208.980400
    reduced_to: 91
  - symbol: Bi # 135
    coordinates: [  0.166666666666667,  0.833333333333333,  0.499999999999999 ]
    mass: 208.980400
    reduced_to: 91
  - symbol: Bi # 136
    coordinates: [  0.266666666666667,  0.933333333333333,  0.499999999999999 ]
    mass: 208.980400
    reduced_to: 91
  - symbol: Bi # 137
    coordinates: [  0.366666666666667,  0.033333333333333,  0.499999999999999 ]
    mass: 208.980400
    reduced_to: 91
  - symbol: Bi # 138
    coordinates: [  0.466666666666667,  0.133333333333333,  0.499999999999999 ]
    mass: 208.980400
    reduced_to: 91
  - symbol: Bi # 139
    coordinates: [  0.566666666666667,  0.233333333333333,  0.499999999999999 ]
    mass: 208.980400
    reduced_to: 91
  - symbol: Bi # 140
    coordinates: [  0.666666666666667,  0.333333333333333,  0.499999999999999 ]
    mass: 208.980400
    reduced_to: 91
  - symbol: Bi # 141
    coordinates: [  0.600000000000001,  0.600000000000000,  0.499999999999999 ]
    mass: 208.980400
    reduced_to: 91
  - symbol: Bi # 142
    coordinates: [  0.700000000000001,  0.700000000000000,  0.499999999999999 ]
    mass: 208.980400
    reduced_to: 91
  - symbol: Bi # 143
    coordinates: [  0.800000000000001,  0.800000000000000,  0.499999999999999 ]
    mass: 208.980400
    reduced_to: 91
  - symbol: Bi # 144
    coordinates: [  0.900000000000001,  0.900000000000000,  0.499999999999999 ]
    mass: 208.980400
    reduced_to: 91
  - symbol: Bi # 145
    coordinates: [  0.000000000000001,  1.000000000000000,  0.499999999999999 ]
    mass: 208.980400
    reduced_to: 91
  - symbol: Bi # 146
    coordinates: [  0.100000000000001,  0.100000000000000,  0.499999999999999 ]
    mass: 208.980400
    reduced_to: 91
  - symbol: Bi # 147
    coordinates: [  0.200000000000001,  0.200000000000000,  0.499999999999999 ]
    mass: 208.980400
    reduced_to: 91
  - symbol: Bi # 148
    coordinates: [  0.300000000000001,  0.300000000000000,  0.499999999999999 ]
    mass: 208.980400
    reduced_to: 91
  - symbol: Bi # 149
    coordinates: [  0.400000000000001,  0.400000000000000,  0.499999999999999 ]
    mass: 208.980400
    reduced_to: 91
  - symbol: Bi # 150
    coordinates: [  0.500000000000001,  0.500000000000000,  0.499999999999999 ]
    mass: 208.980400
    reduced_to: 91
  - symbol: Bi # 151
    coordinates: [  0.011111111111112,  0.122222222222222,  0.833333333333333 ]
    mass: 208.980400
    reduced_to: 91
  - symbol: Bi # 152
    coordinates: [  0.111111111111112,  0.222222222222222,  0.833333333333333 ]
    mass: 208.980400
    reduced_to: 91
  - symbol: Bi # 153
    coordinates: [  0.211111111111112,  0.322222222222222,  0.833333333333333 ]
    mass: 208.980400
    reduced_to: 91
  - symbol: Bi # 154
    coordinates: [  0.311111111111112,  0.422222222222222,  0.833333333333333 ]
    mass: 208.980400
    reduced_to: 91
  - symbol: Bi # 155
    coordinates: [  0.411111111111112,  0.522222222222222,  0.833333333333333 ]
    mass: 208.980400
    reduced_to: 91
  - symbol: Bi # 156
    coordinates: [  0.511111111111112,  0.622222222222222,  0.833333333333333 ]
    mass: 208.980400
    reduced_to: 91
  - symbol: Bi # 157
    coordinates: [  0.611111111111112,  0.722222222222222,  0.833333333333333 ]
    mass: 208.980400
    reduced_to: 91
  - symbol: Bi # 158
    coordinates: [  0.711111111111112,  0.822222222222222,  0.833333333333333 ]
    mass: 208.980400
    reduced_to: 91
  - symbol: Bi # 159
    coordinates: [  0.811111111111112,  0.922222222222222,  0.833333333333333 ]
    mass: 208.980400
    reduced_to: 91
  - symbol: Bi # 160
    coordinates: [  0.911111111111112,  0.022222222222222,  0.833333333333333 ]
    mass: 208.980400
    reduced_to: 91
  - symbol: Bi # 161
    coordinates: [  0.844444444444445,  0.288888888888889,  0.833333333333333 ]
    mass: 208.980400
    reduced_to: 91
  - symbol: Bi # 162
    coordinates: [  0.944444444444445,  0.388888888888889,  0.833333333333333 ]
    mass: 208.980400
    reduced_to: 91
  - symbol: Bi # 163
    coordinates: [  0.044444444444445,  0.488888888888889,  0.833333333333333 ]
    mass: 208.980400
    reduced_to: 91
  - symbol: Bi # 164
    coordinates: [  0.144444444444445,  0.588888888888889,  0.833333333333333 ]
    mass: 208.980400
    reduced_to: 91
  - symbol: Bi # 165
    coordinates: [  0.244444444444445,  0.688888888888889,  0.833333333333333 ]
    mass: 208.980400
    reduced_to: 91
  - symbol: Bi # 166
    coordinates: [  0.344444444444445,  0.788888888888889,  0.833333333333333 ]
    mass: 208.980400
    reduced_to: 91
  - symbol: Bi # 167
    coordinates: [  0.444444444444445,  0.888888888888889,  0.833333333333333 ]
    mass: 208.980400
    reduced_to: 91
  - symbol: Bi # 168
    coordinates: [  0.544444444444445,  0.988888888888889,  0.833333333333333 ]
    mass: 208.980400
    reduced_to: 91
  - symbol: Bi # 169
    coordinates: [  0.644444444444445,  0.088888888888889,  0.833333333333333 ]
    mass: 208.980400
    reduced_to: 91
  - symbol: Bi # 170
    coordinates: [  0.744444444444445,  0.188888888888889,  0.833333333333333 ]
    mass: 208.980400
    reduced_to: 91
  - symbol: Bi # 171
    coordinates: [  0.677777777777778,  0.455555555555555,  0.833333333333333 ]
    mass: 208.980400
    reduced_to: 91
  - symbol: Bi # 172
    coordinates: [  0.777777777777778,  0.555555555555555,  0.833333333333333 ]
    mass: 208.980400
    reduced_to: 91
  - symbol: Bi # 173
    coordinates: [  0.877777777777778,  0.655555555555555,  0.833333333333333 ]
    mass: 208.980400
    reduced_to: 91
  - symbol: Bi # 174
    coordinates: [  0.977777777777778,  0.755555555555555,  0.833333333333333 ]
    mass: 208.980400
    reduced_to: 91
  - symbol: Bi # 175
    coordinates: [  0.077777777777778,  0.855555555555555,  0.833333333333333 ]
    mass: 208.980400
    reduced_to: 91
  - symbol: Bi # 176
    coordinates: [  0.177777777777778,  0.955555555555555,  0.833333333333333 ]
    mass: 208.980400
    reduced_to: 91
  - symbol: Bi # 177
    coordinates: [  0.277777777777778,  0.055555555555555,  0.833333333333333 ]
    mass: 208.980400
    reduced_to: 91
  - symbol: Bi # 178
    coordinates: [  0.377777777777778,  0.155555555555555,  0.833333333333333 ]
    mass: 208.980400
    reduced_to: 91
  - symbol: Bi # 179
    coordinates: [  0.477777777777778,  0.255555555555555,  0.833333333333333 ]
    mass: 208.980400
    reduced_to: 91
  - symbol: Bi # 180
    coordinates: [  0.577777777777778,  0.355555555555555,  0.833333333333333 ]
    mass: 208.980400
    reduced_to: 91
  - symbol: Te # 181
    coordinates: [  0.000000000000000,  1.000000000000000,  0.256197224237648 ]
    mass: 127.600000
    reduced_to: 181
  - symbol: Te # 182
    coordinates: [  0.100000000000000,  0.100000000000000,  0.256197224237648 ]
    mass: 127.600000
    reduced_to: 181
  - symbol: Te # 183
    coordinates: [  0.200000000000000,  0.200000000000000,  0.256197224237648 ]
    mass: 127.600000
    reduced_to: 181
  - symbol: Te # 184
    coordinates: [  0.300000000000000,  0.300000000000000,  0.256197224237648 ]
    mass: 127.600000
    reduced_to: 181
  - symbol: Te # 185
    coordinates: [  0.400000000000000,  0.400000000000000,  0.256197224237648 ]
    mass: 127.600000
    reduced_to: 181
  - symbol: Te # 186
    coordinates: [  0.500000000000000,  0.500000000000000,  0.256197224237648 ]
    mass: 127.600000
    reduced_to: 181
  - symbol: Te # 187
    coordinates: [  0.600000000000000,  0.600000000000000,  0.256197224237648 ]
    mass: 127.600000
    reduced_to: 181
  - symbol: Te # 188
    coordinates: [  0.700000000000000,  0.700000000000000,  0.256197224237648 ]