phonopy:
  version: "2.27.0"
  frequency_unit_conversion_factor: 15.633302
  symmetry_tolerance: 1.00000e-03

space_group:
  type: "R-3m"
  number: 166
  Hall_symbol: "-R 3 2\""

primitive_matrix:
- [  0.666666666666667, -0.333333333333333, -0.333333333333333 ]
- [  0.333333333333333,  0.333333333333333, -0.666666666666667 ]
- [  0.333333333333333,  0.333333333333333,  0.333333333333333 ]

supercell_matrix:
- [   5,  -3,   0 ]
- [   5,   3,   0 ]
- [   0,   0,   1 ]

primitive_cell:
  lattice:
  - [     2.256107852228866,    -1.302564475805141,     7.384938452255832 ] # a
  - [    -0.000000000000000,     2.605128951610329,     7.384938452255827 ] # b
  - [    -2.256107852228829,    -1.302564475805195,     7.384938452255825 ] # c
  points:
  - symbol: Te # 1
    coordinates: [  0.500000000000008,  0.499999999999990,  0.500000000000002 ]
    mass: 127.600000
  - symbol: Pb # 2
    coordinates: [  0.744729538071430,  0.744729538071417,  0.744729538071425 ]
    mass: 207.200000
  - symbol: Pb # 3
    coordinates: [  0.255270461928581,  0.255270461928568,  0.255270461928577 ]
    mass: 207.200000
  - symbol: Se # 4
    coordinates: [  0.000000000000006,  0.999999999999992,  0.000000000000002 ]
    mass: 78.960000
  reciprocal_lattice: # without 2pi
  - [     0.221620610692900,    -0.127952719241512,     0.045136914205630 ] # a*
  - [    -0.000000000000003,     0.255905438483026,     0.045136914205631 ] # b*
  - [    -0.221620610692897,    -0.127952719241514,     0.045136914205631 ] # c*

unit_cell:
  lattice:
  - [     2.256107852228867,    -3.907693427415472,     0.000000000000006 ] # a
  - [     2.256107852228829,     3.907693427415525,     0.000000000000002 ] # b
  - [     0.000000000000037,    -0.000000000000007,    22.154815356767489 ] # c
  points:
  - symbol: Te # 1
    coordinates: [  0.333333333333341,  0.666666666666664,  0.166666666666667 ]
    mass: 127.600000
    reduced_to: 1
  - symbol: Te # 2
    coordinates: [  1.000000000000010,  0.999999999999997,  0.500000000000000 ]
    mass: 127.600000
    reduced_to: 1
  - symbol: Te # 3
    coordinates: [  0.666666666666675,  0.333333333333330,  0.833333333333333 ]
    mass: 127.600000
    reduced_to: 1
  - symbol: Pb # 4
    coordinates: [  0.666666666666673,  0.333333333333331,  0.078062871404757 ]
    mass: 207.200000
    reduced_to: 4
  - symbol: Pb # 5
    coordinates: [  0.000000000000007, -0.000000000000002,  0.255270461928575 ]
    mass: 207.200000
    reduced_to: 5
  - symbol: Pb # 6
    coordinates: [  0.333333333333342,  0.666666666666664,  0.411396204738090 ]
    mass: 207.200000
    reduced_to: 4
  - symbol: Pb # 7
    coordinates: [  0.666666666666675,  0.333333333333331,  0.588603795261909 ]
    mass: 207.200000
    reduced_to: 5
  - symbol: Pb # 8
    coordinates: [  0.000000000000006, -0.000000000000002,  0.744729538071424 ]
    mass: 207.200000
    reduced_to: 4
  - symbol: Pb # 9
    coordinates: [  0.333333333333341,  0.666666666666664,  0.921937128595242 ]
    mass: 207.200000
    reduced_to: 5
  - symbol: Se # 10
    coordinates: [  0.000000000000007, -0.000000000000003, -0.000000000000000 ]
    mass: 78.960000
    reduced_to: 10
  - symbol: Se # 11
    coordinates: [  0.666666666666676,  0.333333333333330,  0.333333333333333 ]
    mass: 78.960000
    reduced_to: 10
  - symbol: Se # 12
    coordinates: [  0.333333333333343,  0.666666666666663,  0.666666666666667 ]
    mass: 78.960000
    reduced_to: 10

supercell:
  lattice:
  - [    22.561078522288479,     0.000000000000265,     0.000000000000038 ] # a
  - [    -0.000000000000115,    23.446160564492992,    -0.000000000000013 ] # b
  - [     0.000000000000037,    -0.000000000000007,    22.154815356767489 ] # c
  points:
  - symbol: Te # 1
    coordinates: [  0.100000000000001,  0.055555555555554,  0.166666666666667 ]
    mass: 127.600000
    reduced_to: 1
  - symbol: Te # 2
    coordinates: [  0.200000000000001,  0.888888888888887,  0.166666666666667 ]
    mass: 127.600000
    reduced_to: 1
  - symbol: Te # 3
    coordinates: [  0.300000000000001,  0.722222222222221,  0.166666666666667 ]
    mass: 127.600000
    reduced_to: 1
  - symbol: Te # 4
    coordinates: [  0.400000000000001,  0.555555555555554,  0.166666666666667 ]
    mass: 127.600000
    reduced_to: 1
  - symbol: Te # 5
    coordinates: [  0.500000000000001,  0.388888888888887,  0.166666666666667 ]
    mass: 127.600000
    reduced_to: 1
  - symbol: Te # 6
    coordinates: [  0.600000000000001,  0.222222222222221,  0.166666666666667 ]
    mass: 127.600000
    reduced_to: 1
  - symbol: Te # 7
    coordinates: [  0.700000000000001,  0.055555555555554,  0.166666666666667 ]
    mass: 127.600000
    reduced_to: 1
  - symbol: Te # 8
    coordinates: [  0.800000000000001,  0.888888888888887,  0.166666666666667 ]
    mass: 127.600000
    reduced_to: 1
  - symbol: Te # 9
    coordinates: [  0.200000000000001,  0.222222222222220,  0.166666666666667 ]
    mass: 127.600000
    reduced_to: 1
  - symbol: Te # 10
    coordinates: [  0.300000000000001,  0.055555555555554,  0.166666666666667 ]
    mass: 127.600000
    reduced_to: 1
  - symbol: Te # 11
    coordinates: [  0.400000000000001,  0.888888888888887,  0.166666666666667 ]
    mass: 127.600000
    reduced_to: 1
  - symbol: Te # 12
    coordinates: [  0.500000000000001,  0.722222222222221,  0.166666666666667 ]
    mass: 127.600000
    reduced_to: 1
  - symbol: Te # 13
    coordinates: [  0.600000000000001,  0.555555555555554,  0.166666666666667 ]
    mass: 127.600000
    reduced_to: 1
  - symbol: Te # 14
    coordinates: [  0.700000000000001,  0.388888888888887,  0.166666666666667 ]
    mass: 127.600000
    reduced_to: 1
  - symbol: Te # 15
    coordinates: [  0.800000000000001,  0.222222222222221,  0.166666666666667 ]
    mass: 127.600000
    reduced_to: 1
  - symbol: Te # 16
    coordinates: [  0.900000000000001,  0.055555555555554,  0.166666666666667 ]
    mass: 127.600000
    reduced_to: 1
  - symbol: Te # 17
    coordinates: [  0.300000000000001,  0.388888888888887,  0.166666666666667 ]
    mass: 127.600000
    reduced_to: 1
  - symbol: Te # 18
    coordinates: [  0.400000000000001,  0.222222222222220,  0.166666666666667 ]
    mass: 127.600000
    reduced_to: 1
  - symbol: Te # 19
    coordinates: [  0.500000000000001,  0.055555555555554,  0.166666666666667 ]
    mass: 127.600000
    reduced_to: 1
  - symbol: Te # 20
    coordinates: [  0.600000000000001,  0.888888888888887,  0.166666666666667 ]
    mass: 127.600000
    reduced_to: 1
  - symbol: Te # 21
    coordinates: [  0.700000000000001,  0.722222222222221,  0.166666666666667 ]
    mass: 127.600000
    reduced_to: 1
  - symbol: Te # 22
    coordinates: [  0.800000000000001,  0.555555555555554,  0.166666666666667 ]
    mass: 127.600000
    reduced_to: 1
  - symbol: Te # 23
    coordinates: [  0.900000000000001,  0.388888888888887,  0.166666666666667 ]
    mass: 127.600000
    reduced_to: 1
  - symbol: Te # 24
    coordinates: [  0.000000000000001,  0.222222222222221,  0.166666666666667 ]
    mass: 127.600000
    reduced_to: 1
  - symbol: Te # 25
    coordinates: [  0.900000000000001,  0.722222222222221,  0.166666666666667 ]
    mass: 127.600000
    reduced_to: 1
  - symbol: Te # 26
    coordinates: [  0.000000000000001,  0.555555555555554,  0.166666666666667 ]
    mass: 127.600000
    reduced_to: 1
  - symbol: Te # 27
    coordinates: [  0.100000000000001,  0.388888888888887,  0.166666666666667 ]
    mass: 127.600000
    reduced_to: 1
  - symbol: Te # 28
    coordinates: [  0.000000000000001,  0.888888888888887,  0.166666666666667 ]
    mass: 127.600000
    reduced_to: 1
  - symbol: Te # 29
    coordinates: [  0.100000000000001,  0.722222222222221,  0.166666666666667 ]
    mass: 127.600000
    reduced_to: 1
  - symbol: Te # 30
    coordinates: [  0.200000000000001,  0.555555555555554,  0.166666666666667 ]
    mass: 127.600000
    reduced_to: 1
  - symbol: Te # 31
    coordinates: [  0.200000000000001,  0.999999999999998,  0.500000000000000 ]
    mass: 127.600000
    reduced_to: 1
  - symbol: Te # 32
    coordinates: [  0.300000000000001,  0.833333333333331,  0.500000000000000 ]
    mass: 127.600000
    reduced_to: 1
  - symbol: Te # 33
    coordinates: [  0.400000000000001,  0.666666666666665,  0.500000000000000 ]
    mass: 127.600000
    reduced_to: 1
  - symbol: Te # 34
    coordinates: [  0.500000000000001,  0.499999999999998,  0.500000000000000 ]
    mass: 127.600000
    reduced_to: 1
  - symbol: Te # 35
    coordinates: [  0.600000000000001,  0.333333333333331,  0.500000000000000 ]
    mass: 127.600000
    reduced_to: 1
  - symbol: Te # 36
    coordinates: [  0.700000000000001,  0.166666666666665,  0.500000000000000 ]
    mass: 127.600000
    reduced_to: 1
  - symbol: Te # 37
    coordinates: [  0.800000000000001,  0.999999999999998,  0.500000000000000 ]
    mass: 127.600000
    reduced_to: 1
  - symbol: Te # 38
    coordinates: [  0.900000000000001,  0.833333333333331,  0.500000000000000 ]
    mass: 127.600000
    reduced_to: 1
  - symbol: Te # 39
    coordinates: [  0.300000000000001,  0.166666666666664,  0.500000000000000 ]
    mass: 127.600000
    reduced_to: 1
  - symbol: Te # 40
    coordinates: [  0.400000000000001,  0.999999999999998,  0.500000000000000 ]
    mass: 127.600000
    reduced_to: 1
  - symbol: Te # 41
    coordinates: [  0.500000000000001,  0.833333333333331,  0.500000000000000 ]
    mass: 127.600000
    reduced_to: 1
  - symbol: Te # 42
    coordinates: [  0.600000000000001,  0.666666666666665,  0.500000000000000 ]
    mass: 127.600000
    reduced_to: 1
  - symbol: Te # 43
    coordinates: [  0.700000000000001,  0.499999999999998,  0.500000000000000 ]
    mass: 127.600000
    reduced_to: 1
  - symbol: Te # 44
    coordinates: [  0.800000000000001,  0.333333333333331,  0.500000000000000 ]
    mass: 127.600000
    reduced_to: 1
  - symbol: Te # 45
    coordinates: [  0.900000000000001,  0.166666666666665,  0.500000000000000 ]
    mass: 127.600000
    reduced_to: 1
  - symbol: Te # 46
    coordinates: [  0.000000000000001,  0.999999999999998,  0.500000000000000 ]
    mass: 127.600000
    reduced_to: 1
  - symbol: Te # 47
    coordinates: [  0.400000000000001,  0.333333333333331,  0.500000000000000 ]
    mass: 127.600000
    reduced_to: 1
  - symbol: Te # 48
    coordinates: [  0.500000000000001,  0.166666666666665,  0.500000000000000 ]
    mass: 127.600000
    reduced_to: 1
  - symbol: Te # 49
    coordinates: [  0.600000000000001,  0.999999999999998,  0.500000000000000 ]
    mass: 127.600000
    reduced_to: 1
  - symbol: Te # 50
    coordinates: [  0.700000000000001,  0.833333333333331,  0.500000000000000 ]
    mass: 127.600000
    reduced_to: 1
  - symbol: Te # 51
    coordinates: [  0.800000000000001,  0.666666666666665,  0.500000000000000 ]
    mass: 127.600000
    reduced_to: 1
  - symbol: Te # 52
    coordinates: [  0.900000000000001,  0.499999999999998,  0.500000000000000 ]
    mass: 127.600000
    reduced_to: 1
  - symbol: Te # 53
    coordinates: [  0.000000000000001,  0.333333333333331,  0.500000000000000 ]
    mass: 127.600000
    reduced_to: 1
  - symbol: Te # 54
    coordinates: [  0.100000000000001,  0.166666666666664,  0.500000000000000 ]
    mass: 127.600000
    reduced_to: 1
  - symbol: Te # 55
    coordinates: [  0.000000000000001,  0.666666666666665,  0.500000000000000 ]
    mass: 127.600000
    reduced_to: 1
  - symbol: Te # 56
    coordinates: [  0.100000000000001,  0.499999999999998,  0.500000000000000 ]
    mass: 127.600000
    reduced_to: 1
  - symbol: Te # 57
    coordinates: [  0.200000000000001,  0.333333333333331,  0.500000000000000 ]
    mass: 127.600000
    reduced_to: 1
  - symbol: Te # 58
    coordinates: [  0.100000000000001,  0.833333333333331,  0.500000000000000 ]
    mass: 127.600000
    reduced_to: 1
  - symbol: Te # 59
    coordinates: [  0.200000000000001,  0.666666666666664,  0.500000000000000 ]
    mass: 127.600000
    reduced_to: 1
  - symbol: Te # 60
    coordinates: [  0.300000000000001,  0.499999999999998,  0.500000000000000 ]
    mass: 127.600000
    reduced_to: 1
  - symbol: Te # 61
    coordinates: [  0.100000000000001,  0.944444444444443,  0.833333333333333 ]
    mass: 127.600000
    reduced_to: 1
  - symbol: Te # 62
    coordinates: [  0.200000000000001,  0.777777777777776,  0.833333333333333 ]
    mass: 127.600000
    reduced_to: 1
  - symbol: Te # 63
    coordinates: [  0.300000000000000,  0.611111111111109,  0.833333333333333 ]
    mass: 127.600000
    reduced_to: 1
  - symbol: Te # 64
    coordinates: [  0.400000000000001,  0.444444444444443,  0.833333333333333 ]
    mass: 127.600000
    reduced_to: 1
  - symbol: Te # 65
    coordinates: [  0.500000000000001,  0.277777777777776,  0.833333333333333 ]
    mass: 127.600000
    reduced_to: 1
  - symbol: Te # 66
    coordinates: [  0.600000000000001,  0.111111111111109,  0.833333333333333 ]
    mass: 127.600000
    reduced_to: 1
  - symbol: Te # 67
    coordinates: [  0.700000000000001,  0.944444444444443,  0.833333333333333 ]
    mass: 127.600000
    reduced_to: 1
  - symbol: Te # 68
    coordinates: [  0.800000000000001,  0.777777777777776,  0.833333333333333 ]
    mass: 127.600000
    reduced_to: 1
  - symbol: Te # 69
    coordinates: [  0.200000000000001,  0.111111111111109,  0.833333333333333 ]
    mass: 127.600000
    reduced_to: 1
  - symbol: Te # 70
    coordinates: [  0.300000000000000,  0.944444444444443,  0.833333333333333 ]
    mass: 127.600000
    reduced_to: 1
  - symbol: Te # 71
    coordinates: [  0.400000000000000,  0.777777777777776,  0.833333333333333 ]
    mass: 127.600000
    reduced_to: 1
  - symbol: Te # 72
    coordinates: [  0.500000000000001,  0.611111111111109,  0.833333333333333 ]
    mass: 127.600000
    reduced_to: 1
  - symbol: Te # 73
    coordinates: [  0.600000000000001,  0.444444444444443,  0.833333333333333 ]
    mass: 127.600000
    reduced_to: 1
  - symbol: Te # 74
    coordinates: [  0.700000000000001,  0.277777777777776,  0.833333333333333 ]
    mass: 127.600000
    reduced_to: 1
  - symbol: Te # 75
    coordinates: [  0.800000000000001,  0.111111111111109,  0.833333333333333 ]
    mass: 127.600000
    reduced_to: 1
  - symbol: Te # 76
    coordinates: [  0.900000000000001,  0.944444444444443,  0.833333333333333 ]
    mass: 127.600000
    reduced_to: 1
  - symbol: Te # 77
    coordinates: [  0.300000000000000,  0.277777777777776,  0.833333333333333 ]
    mass: 127.600000
    reduced_to: 1
  - symbol: Te # 78
    coordinates: [  0.400000000000001,  0.111111111111109,  0.833333333333333 ]
    mass: 127.600000
    reduced_to: 1
  - symbol: Te # 79
    coordinates: [  0.500000000000000,  0.944444444444443,  0.833333333333333 ]
    mass: 127.600000
    reduced_to: 1
  - symbol: Te # 80
    coordinates: [  0.600000000000001,  0.777777777777776,  0.833333333333333 ]
    mass: 127.600000
    reduced_to: 1
  - symbol: Te # 81
    coordinates: [  0.700000000000001,  0.611111111111109,  0.833333333333333 ]
    mass: 127.600000
    reduced_to: 1
  - symbol: Te # 82
    coordinates: [  0.800000000000001,  0.444444444444443,  0.833333333333333 ]
    mass: 127.600000
    reduced_to: 1
  - symbol: Te # 83
    coordinates: [  0.900000000000001,  0.277777777777776,  0.833333333333333 ]
    mass: 127.600000
    reduced_to: 1
  - symbol: Te # 84
    coordinates: [  0.000000000000000,  0.111111111111109,  0.833333333333333 ]
    mass: 127.600000
    reduced_to: 1
  - symbol: Te # 85
    coordinates: [  0.900000000000001,  0.611111111111109,  0.833333333333333 ]
    mass: 127.600000
    reduced_to: 1
  - symbol: Te # 86
    coordinates: [  0.000000000000001,  0.444444444444443,  0.833333333333333 ]
    mass: 127.600000
    reduced_to: 1
  - symbol: Te # 87
    coordinates: [  0.100000000000001,  0.277777777777776,  0.833333333333333 ]
    mass: 127.600000
    reduced_to: 1
  - symbol: Te # 88
    coordinates: [  0.000000000000001,  0.777777777777776,  0.833333333333333 ]
    mass: 127.600000
    reduced_to: 1
  - symbol: Te # 89
    coordinates: [  0.100000000000001,  0.611111111111109,  0.833333333333333 ]
    mass: 127.600000
    reduced_to: 1
  - symbol: Te # 90
    coordinates: [  0.200000000000001,  0.444444444444443,  0.833333333333333 ]
    mass: 127.600000
    reduced_to: 1
  - symbol: Pb # 91
    coordinates: [  0.100000000000000,  0.944444444444443,  0.078062871404757 ]
    mass: 207.200000
    reduced_to: 91
  - symbol: Pb # 92
    coordinates: [  0.200000000000000,  0.777777777777776,  0.078062871404757 ]
    mass: 207.200000
    reduced_to: 91
  - symbol: Pb # 93
    coordinates: [  0.300000000000000,  0.611111111111110,  0.078062871404757 ]
    mass: 207.200000
    reduced_to: 91
  - symbol: Pb # 94
    coordinates: [  0.400000000000000,  0.444444444444443,  0.078062871404757 ]
    mass: 207.200000
    reduced_to: 91
  - symbol: Pb # 95
    coordinates: [  0.500000000000000,  0.277777777777776,  0.078062871404757 ]
    mass: 207.200000
    reduced_to: 91
  - symbol: Pb # 96
    coordinates: [  0.600000000000000,  0.111111111111110,  0.078062871404757 ]
    mass: 207.200000
    reduced_to: 91
  - symbol: Pb # 97
    coordinates: [  0.700000000000001,  0.944444444444443,  0.078062871404757 ]
    mass: 207.200000
    reduced_to: 91
  - symbol: Pb # 98
    coordinates: [  0.800000000000000,  0.777777777777776,  0.078062871404757 ]
    mass: 207.200000
    reduced_to: 91
  - symbol: Pb # 99
    coordinates: [  0.200000000000000,  0.111111111111110,  0.078062871404757 ]
    mass: 207.200000
    reduced_to: 91
  - symbol: Pb # 100
    coordinates: [  0.300000000000000,  0.944444444444443,  0.078062871404757 ]
    mass: 207.200000
    reduced_to: 91
  - symbol: Pb # 101
    coordinates: [  0.400000000000000,  0.777777777777776,  0.078062871404757 ]
    mass: 207.200000
    reduced_to: 91
  - symbol: Pb # 102
    coordinates: [  0.500000000000000,  0.611111111111110,  0.078062871404757 ]
    mass: 207.200000
    reduced_to: 91
  - symbol: Pb # 103
    coordinates: [  0.600000000000000,  0.444444444444443,  0.078062871404757 ]
    mass: 207.200000
    reduced_to: 91
  - symbol: Pb # 104
    coordinates: [  0.700000000000000,  0.277777777777776,  0.078062871404757 ]
    mass: 207.200000
    reduced_to: 91
  - symbol: Pb # 105
    coordinates: [  0.800000000000000,  0.111111111111110,  0.078062871404757 ]
    mass: 207.200000
    reduced_to: 91
  - symbol: Pb # 106
    coordinates: [  0.900000000000000,  0.944444444444443,  0.078062871404757 ]
    mass: 207.200000
    reduced_to: 91
  - symbol: Pb # 107
    coordinates: [  0.300000000000000,  0.277777777777776,  0.078062871404757 ]
    mass: 207.200000
    reduced_to: 91
  - symbol: Pb # 108
    coordinates: [  0.400000000000000,  0.111111111111110,  0.078062871404757 ]
    mass: 207.200000
    reduced_to: 91
  - symbol: Pb # 109
    coordinates: [  0.500000000000000,  0.944444444444443,  0.078062871404757 ]
    mass: 207.200000
    reduced_to: 91
  - symbol: Pb # 110
    coordinates: [  0.600000000000000,  0.777777777777776,  0.078062871404757 ]
    mass: 207.200000
    reduced_to: 91
  - symbol: Pb # 111
    coordinates: [  0.700000000000000,  0.611111111111110,  0.078062871404757 ]
    mass: 207.200000
    reduced_to: 91
  - symbol: Pb # 112
    coordinates: [  0.800000000000000,  0.444444444444443,  0.078062871404757 ]
    mass: 207.200000
    reduced_to: 91
  - symbol: Pb # 113
    coordinates: [  0.900000000000000,  0.277777777777776,  0.078062871404757 ]
    mass: 207.200000
    reduced_to: 91
  - symbol: Pb # 114
    coordinates: [  0.000000000000000,  0.111111111111110,  0.078062871404757 ]
    mass: 207.200000
    reduced_to: 91
  - symbol: Pb # 115
    coordinates: [  0.900000000000000,  0.611111111111110,  0.078062871404757 ]
    mass: 207.200000
    reduced_to: 91
  - symbol: Pb # 116
    coordinates: [  0.000000000000000,  0.444444444444443,  0.078062871404757 ]
    mass: 207.200000
    reduced_to: 91
  - symbol: Pb # 117
    coordinates: [  0.100000000000001,  0.277777777777776,  0.078062871404757 ]
    mass: 207.200000
    reduced_to: 91
  - symbol: Pb # 118
    coordinates: [  0.000000000000000,  0.777777777777776,  0.078062871404757 ]
    mass: 207.200000
    reduced_to: 91
  - symbol: Pb # 119
    coordinates: [  0.100000000000001,  0.611111111111110,  0.078062871404757 ]
    mass: 207.200000
    reduced_to: 91
  - symbol: Pb # 120
    coordinates: [  0.200000000000001,  0.444444444444443,  0.078062871404757 ]
    mass: 207.200000
    reduced_to: 91
  - symbol: Pb # 121
    coordinates: [  0.000000000000000,  0.999999999999998,  0.255270461928575 ]
    mass: 207.200000
    reduced_to: 121
  - symbol: Pb # 122
    coordinates: [  0.100000000000000,  0.833333333333332,  0.255270461928575 ]
    mass: 207.200000
    reduced_to: 121
  - symbol: Pb # 123
    coordinates: [  0.200000000000000,  0.666666666666665,  0.255270461928575 ]
    mass: 207.200000
    reduced_to: 121
  - symbol: Pb # 124
    coordinates: [  0.300000000000000,  0.499999999999998,  0.255270461928575 ]
    mass: 207.200000
    reduced_to: 121
  - symbol: Pb # 125
    coordinates: [  0.400000000000000,  0.333333333333332,  0.255270461928575 ]
    mass: 207.200000
    reduced_to: 121
  - symbol: Pb # 126
    coordinates: [  0.500000000000000,  0.166666666666665,  0.255270461928575 ]
    mass: 207.200000
    reduced_to: 121
  - symbol: Pb # 127
    coordinates: [  0.600000000000000,  0.999999999999999,  0.255270461928575 ]
    mass: 207.200000
    reduced_to: 121
  - symbol: Pb # 128
    coordinates: [  0.700000000000000,  0.833333333333332,  0.255270461928575 ]
    mass: 207.200000
    reduced_to: 121
  - symbol: Pb # 129
    coordinates: [  0.100000000000000,  0.166666666666665,  0.255270461928575 ]
    mass: 207.200000
    reduced_to: 121
  - symbol: Pb # 130
    coordinates: [  0.200000000000000,  0.999999999999998,  0.255270461928575 ]
    mass: 207.200000
    reduced_to: 121
  - symbol: Pb # 131
    coordinates: [  0.300000000000000,  0.833333333333332,  0.255270461928575 ]
    mass: 207.200000
    reduced_to: 121
  - symbol: Pb # 132
    coordinates: [  0.400000000000000,  0.666666666666665,  0.255270461928575 ]
    mass: 207.200000
    reduced_to: 121
  - symbol: Pb # 133
    coordinates: [  0.500000000000000,  0.499999999999999,  0.255270461928575 ]
    mass: 207.200000
    reduced_to: 121
  - symbol: Pb # 134
    coordinates: [  0.600000000000000,  0.333333333333332,  0.255270461928575 ]
    mass: 207.200000
    reduced_to: 121
  - symbol: Pb # 135
    coordinates: [  0.700000000000000,  0.166666666666665,  0.255270461928575 ]
    mass: 207.200000
    reduced_to: 121
  - symbol: Pb # 136
    coordinates: [  0.800000000000000,  0.999999999999999,  0.255270461928575 ]
    mass: 207.200000
    reduced_to: 121
  - symbol: Pb # 137
    coordinates: [  0.200000000000000,  0.333333333333332,  0.255270461928575 ]
    mass: 207.200000
    reduced_to: 121
  - symbol: Pb # 138
    coordinates: [  0.300000000000000,  0.166666666666665,  0.255270461928575 ]
    mass: 207.200000
    reduced_to: 121
  - symbol: Pb # 139
    coordinates: [  0.400000000000000,  0.999999999999998,  0.255270461928575 ]
    mass: 207.200000
    reduced_to: 121
  - symbol: Pb # 140
    coordinates: [  0.500000000000000,  0.833333333333332,  0.255270461928575 ]
    mass: 207.200000
    reduced_to: 121
  - symbol: Pb # 141
    coordinates: [  0.600000000000000,  0.666666666666665,  0.255270461928575 ]
    mass: 207.200000
    reduced_to: 121
  - symbol: Pb # 142
    coordinates: [  0.700000000000000,  0.499999999999999,  0.255270461928575 ]
    mass: 207.200000
    reduced_to: 121
  - symbol: Pb # 143
    coordinates: [  0.800000000000000,  0.333333333333332,  0.255270461928575 ]
    mass: 207.200000
    reduced_to: 121
  - symbol: Pb # 144
    coordinates: [  0.900000000000000,  0.166666666666665,  0.255270461928575 ]
    mass: 207.200000
    reduced_to: 121
  - symbol: Pb # 145
    coordinates: [  0.800000000000000,  0.666666666666665,  0.255270461928575 ]
    mass: 207.200000
    reduced_to: 121
  - symbol: Pb # 146
    coordinates: [  0.900000000000000,  0.499999999999999,  0.255270461928575 ]
    mass: 207.200000
    reduced_to: 121
  - symbol: Pb # 147
    coordinates: [  0.000000000000000,  0.333333333333332,  0.255270461928575 ]
    mass: 207.200000
    reduced_to: 121
  - symbol: Pb # 148
    coordinates: [  0.900000000000000,  0.833333333333332,  0.255270461928575 ]
    mass: 207.200000
    reduced_to: 121
  - symbol: Pb # 149
    coordinates: [  0.000000000000000,  0.666666666666665,  0.255270461928575 ]
    mass: 207.200000
    reduced_to: 121
  - symbol: Pb # 150
    coordinates: [  0.100000000000000,  0.499999999999999,  0.255270461928575 ]
    mass: 207.200000
    reduced_to: 121
  - symbol: Pb # 151
    coordinates: [  0.100000000000001,  0.055555555555554,  0.411396204738090 ]
    mass: 207.200000
    reduced_to: 91
  - symbol: Pb # 152
    coordinates: [  0.200000000000001,  0.888888888888887,  0.411396204738090 ]
    mass: 207.200000
    reduced_to: 91
  - symbol: Pb # 153
    coordinates: [  0.300000000000001,  0.722222222222220,  0.411396204738090 ]
    mass: 207.200000
    reduced_to: 91
  - symbol: Pb # 154
    coordinates: [  0.400000000000001,  0.555555555555554,  0.411396204738090 ]
    mass: 207.200000
    reduced_to: 91
  - symbol: Pb # 155
    coordinates: [  0.500000000000001,  0.388888888888887,  0.411396204738090 ]
    mass: 207.200000
    reduced_to: 91
  - symbol: Pb # 156
    coordinates: [  0.600000000000001,  0.222222222222220,  0.411396204738090 ]
    mass: 207.200000
    reduced_to: 91
  - symbol: Pb # 157
    coordinates: [  0.700000000000001,  0.055555555555554,  0.411396204738090 ]
    mass: 207.200000
    reduced_to: 91
  - symbol: Pb # 158
    coordinates: [  0.800000000000001,  0.888888888888887,  0.411396204738090 ]
    mass: 207.200000
    reduced_to: 91
  - symbol: Pb # 159
    coordinates: [  0.200000000000001,  0.222222222222220,  0.411396204738090 ]
    mass: 207.200000
    reduced_to: 91
  - symbol: Pb # 160
    coordinates: [  0.300000000000000,  0.055555555555554,  0.411396204738090 ]
    mass: 207.200000
    reduced_to: 91
  - symbol: Pb # 161
    coordinates: [  0.400000000000001,  0.888888888888887,  0.411396204738090 ]
    mass: 207.200000
    reduced_to: 91
  - symbol: Pb # 162
    coordinates: [  0.500000000000000,  0.722222222222220,  0.411396204738090 ]
    mass: 207.200000
    reduced_to: 91
  - symbol: Pb # 163
    coordinates: [  0.600000000000001,  0.555555555555554,  0.411396204738090 ]
    mass: 207.200000
    reduced_to: 91
  - symbol: Pb # 164
    coordinates: [  0.700000000000001,  0.388888888888887,  0.411396204738090 ]
    mass: 207.200000
    reduced_to: 91
  - symbol: Pb # 165
    coordinates: [  0.800000000000000,  0.222222222222220,  0.411396204738090 ]
    mass: 207.200000
    reduced_to: 91
  - symbol: Pb # 166
    coordinates: [  0.900000000000001,  0.055555555555554,  0.411396204738090 ]
    mass: 207.200000
    reduced_to: 91
  - symbol: Pb # 167
    coordinates: [  0.300000000000000,  0.388888888888887,  0.411396204738090 ]
    mass: 207.200000
    reduced_to: 91
  - symbol: Pb # 168
    coordinates: [  0.400000000000001,  0.222222222222220,  0.411396204738090 ]
    mass: 207.200000
    reduced_to: 91
  - symbol: Pb # 169
    coordinates: [  0.500000000000001,  0.055555555555554,  0.411396204738090 ]
    mass: 207.200000
    reduced_to: 91
  - symbol: Pb # 170
    coordinates: [  0.600000000000001,  0.888888888888887,  0.411396204738090 ]
    mass: 207.200000
    reduced_to: 91
  - symbol: Pb # 171
    coordinates: [  0.700000000000001,  0.722222222222220,  0.411396204738090 ]
    mass: 207.200000
    reduced_to: 91
  - symbol: Pb # 172
    coordinates: [  0.800000000000001,  0.555555555555554,  0.411396204738090 ]
    mass: 207.200000
    reduced_to: 91
  - symbol: Pb # 173
    coordinates: [  0.900000000000001,  0.388888888888887,  0.411396204738090 ]
    mass: 207.200000
    reduced_to: 91
  - symbol: Pb # 174
    coordinates: [  0.000000000000001,  0.222222222222220,  0.411396204738090 ]
    mass: 207.200000
    reduced_to: 91
  - symbol: Pb # 175
    coordinates: [  0.900000000000001,  0.722222222222220,  0.411396204738090 ]
    mass: 207.200000
    reduced_to: 91
  - symbol: Pb # 176
    coordinates: [  0.000000000000000,  0.555555555555554,  0.411396204738090 ]
    mass: 207.200000
    reduced_to: 91
  - symbol: Pb # 177
    coordinates: [  0.100000000000001,  0.388888888888887,  0.411396204738090 ]
    mass: 207.200000
    reduced_to: 91
  - symbol: Pb # 178
    coordinates: [  0.000000000000001,  0.888888888888887,  0.411396204738090 ]
    mass: 207.200000
    reduced_to: 91
  - symbol: Pb # 179
    coordinates: [  0.100000000000001,  0.722222222222220,  0.411396204738090 ]
    mass: 207.200000
    reduced_to: 91
  - symbol: Pb # 180
    coordinates: [  0.200000000000001,  0.555555555555554,  0.411396204738090 ]
    mass: 207.200000
    reduced_to: 91
  - symbol: Pb # 181
    coordinates: [  0.100000000000001,  0.944444444444443,  0.588603795261909 ]
    mass: 207.200000
    reduced_to: 121
  - symbol: Pb # 182
    coordinates: [  0.200000000000001,  0.777777777777776,  0.588603795261909 ]
    mass: 207.200000
    reduced_to: 121
  - symbol: Pb # 183
    coordinates: [  0.300000000000001,  0.611111111111109,  0.588603795261909 ]
    mass: 207.200000
    reduced_to: 121
  - symbol: Pb # 184
    coordinates: [  0.400000000000001,  0.444444444444443,  0.588603795261909 ]
    mass: 207.200000
    reduced_to: 121
  - symbol: Pb # 185
    coordinates: [  0.500000000000001,  0.277777777777776,  0.588603795261909 ]
    mass: 207.200000
    reduced_to: 121
  - symbol: Pb # 186
    coordinates: [  0.600000000000001,  0.111111111111109,  0.588603795261909 ]
    mass: 207.200000
    reduced_to: 121
  - symbol: Pb # 187
    coordinates: [  0.700000000000001,  0.944444444444443,  0.588603795261909 ]
    mass: 207.200000
    reduced_to: 121
  - symbol: Pb # 188