phonopy:
  version: "2.27.0"
  frequency_unit_conversion_factor: 15.633302
  symmetry_tolerance: 1.00000e-04

space_group:
  type: "R-3m"
  number: 166
  Hall_symbol: "-R 3 2\""

primitive_matrix:
- [  0.666666666666667, -0.333333333333333, -0.333333333333333 ]
- [  0.333333333333333,  0.333333333333333, -0.666666666666667 ]
- [  0.333333333333333,  0.333333333333333,  0.333333333333333 ]

supercell_matrix:
- [   5,   5,   0 ]
- [  -3,   3,   0 ]
- [   0,   0,   1 ]

primitive_cell:
  lattice:
  - [     2.256107852228875,    -1.302564475805128,     7.384938452255803 ] # a
  - [     0.000000000000003,     2.605128951610315,     7.384938452255800 ] # b
  - [    -2.256107852228839,    -1.302564475805182,     7.384938452255795 ] # c
  points:
  - symbol: Te # 1
    coordinates: [  0.500000000000009,  0.499999999999988,  0.500000000000003 ]
    mass: 127.600000
  - symbol: Pb # 2
    coordinates: [  0.744729538071430,  0.744729538071415,  0.744729538071428 ]
    mass: 207.200000
  - symbol: Pb # 3
    coordinates: [  0.255270461928582,  0.255270461928567,  0.255270461928579 ]
    mass: 207.200000
  - symbol: Se # 4
    coordinates: [  0.000000000000006,  0.999999999999990,  0.000000000000004 ]
    mass: 78.960000
  reciprocal_lattice: # without 2pi
  - [     0.221620610692899,    -0.127952719241513,     0.045136914205630 ] # a*
  - [    -0.000000000000003,     0.255905438483027,     0.045136914205631 ] # b*
  - [    -0.221620610692896,    -0.127952719241515,     0.045136914205631 ] # c*

unit_cell:
  lattice:
  - [     2.256107852228873,    -3.907693427415442,     0.000000000000004 ] # a
  - [     2.256107852228841,     3.907693427415496,     0.000000000000004 ] # b
  - [     0.000000000000039,     0.000000000000005,    22.154815356767401 ] # c
  points:
  - symbol: Te # 1
    coordinates: [  0.333333333333341,  0.666666666666662,  0.166666666666666 ]
    mass: 127.600000
    reduced_to: 1
  - symbol: Te # 2
    coordinates: [  1.000000000000009,  0.999999999999995,  0.500000000000000 ]
    mass: 127.600000
    reduced_to: 1
  - symbol: Te # 3
    coordinates: [  0.666666666666674,  0.333333333333329,  0.833333333333333 ]
    mass: 127.600000
    reduced_to: 1
  - symbol: Pb # 4
    coordinates: [  0.666666666666672,  0.333333333333330,  0.078062871404757 ]
    mass: 207.200000
    reduced_to: 4
  - symbol: Pb # 5
    coordinates: [  0.000000000000006, -0.000000000000003,  0.255270461928576 ]
    mass: 207.200000
    reduced_to: 5
  - symbol: Pb # 6
    coordinates: [  0.333333333333341,  0.666666666666662,  0.411396204738091 ]
    mass: 207.200000
    reduced_to: 4
  - symbol: Pb # 7
    coordinates: [  0.666666666666674,  0.333333333333329,  0.588603795261909 ]
    mass: 207.200000
    reduced_to: 5
  - symbol: Pb # 8
    coordinates: [  0.000000000000005, -0.000000000000003,  0.744729538071424 ]
    mass: 207.200000
    reduced_to: 4
  - symbol: Pb # 9
    coordinates: [  0.333333333333340,  0.666666666666663,  0.921937128595242 ]
    mass: 207.200000
    reduced_to: 5
  - symbol: Se # 10
    coordinates: [  0.000000000000006, -0.000000000000004,  0.000000000000000 ]
    mass: 78.960000
    reduced_to: 10
  - symbol: Se # 11
    coordinates: [  0.666666666666675,  0.333333333333328,  0.333333333333333 ]
    mass: 78.960000
    reduced_to: 10
  - symbol: Se # 12
    coordinates: [  0.333333333333342,  0.666666666666661,  0.666666666666667 ]
    mass: 78.960000
    reduced_to: 10

supercell:
  lattice:
  - [     4.512215704457841,   -31.261547419323701,     0.000000000000006 ] # a
  - [    18.048862817830887,    -7.815386854830724,     0.000000000000031 ] # b
  - [     0.000000000000039,     0.000000000000005,    22.154815356767401 ] # c
  points:
  - symbol: Te # 1
    coordinates: [  0.922222222222224,  0.144444444444444,  0.166666666666666 ]
    mass: 127.600000
    reduced_to: 1
  - symbol: Te # 2
    coordinates: [  0.022222222222224,  0.244444444444444,  0.166666666666666 ]
    mass: 127.600000
    reduced_to: 1
  - symbol: Te # 3
    coordinates: [  0.122222222222224,  0.344444444444444,  0.166666666666666 ]
    mass: 127.600000
    reduced_to: 1
  - symbol: Te # 4
    coordinates: [  0.222222222222224,  0.444444444444444,  0.166666666666666 ]
    mass: 127.600000
    reduced_to: 1
  - symbol: Te # 5
    coordinates: [  0.322222222222224,  0.544444444444445,  0.166666666666666 ]
    mass: 127.600000
    reduced_to: 1
  - symbol: Te # 6
    coordinates: [  0.422222222222224,  0.644444444444444,  0.166666666666666 ]
    mass: 127.600000
    reduced_to: 1
  - symbol: Te # 7
    coordinates: [  0.522222222222224,  0.744444444444445,  0.166666666666666 ]
    mass: 127.600000
    reduced_to: 1
  - symbol: Te # 8
    coordinates: [  0.622222222222224,  0.844444444444445,  0.166666666666666 ]
    mass: 127.600000
    reduced_to: 1
  - symbol: Te # 9
    coordinates: [  0.722222222222224,  0.944444444444445,  0.166666666666666 ]
    mass: 127.600000
    reduced_to: 1
  - symbol: Te # 10
    coordinates: [  0.822222222222224,  0.044444444444445,  0.166666666666666 ]
    mass: 127.600000
    reduced_to: 1
  - symbol: Te # 11
    coordinates: [  0.755555555555557,  0.311111111111111,  0.166666666666666 ]
    mass: 127.600000
    reduced_to: 1
  - symbol: Te # 12
    coordinates: [  0.855555555555557,  0.411111111111111,  0.166666666666666 ]
    mass: 127.600000
    reduced_to: 1
  - symbol: Te # 13
    coordinates: [  0.955555555555557,  0.511111111111111,  0.166666666666666 ]
    mass: 127.600000
    reduced_to: 1
  - symbol: Te # 14
    coordinates: [  0.055555555555557,  0.611111111111111,  0.166666666666666 ]
    mass: 127.600000
    reduced_to: 1
  - symbol: Te # 15
    coordinates: [  0.155555555555557,  0.711111111111111,  0.166666666666666 ]
    mass: 127.600000
    reduced_to: 1
  - symbol: Te # 16
    coordinates: [  0.255555555555557,  0.811111111111111,  0.166666666666666 ]
    mass: 127.600000
    reduced_to: 1
  - symbol: Te # 17
    coordinates: [  0.355555555555557,  0.911111111111111,  0.166666666666666 ]
    mass: 127.600000
    reduced_to: 1
  - symbol: Te # 18
    coordinates: [  0.455555555555557,  0.011111111111111,  0.166666666666666 ]
    mass: 127.600000
    reduced_to: 1
  - symbol: Te # 19
    coordinates: [  0.555555555555557,  0.111111111111111,  0.166666666666666 ]
    mass: 127.600000
    reduced_to: 1
  - symbol: Te # 20
    coordinates: [  0.655555555555557,  0.211111111111111,  0.166666666666666 ]
    mass: 127.600000
    reduced_to: 1
  - symbol: Te # 21
    coordinates: [  0.588888888888890,  0.477777777777778,  0.166666666666666 ]
    mass: 127.600000
    reduced_to: 1
  - symbol: Te # 22
    coordinates: [  0.688888888888890,  0.577777777777778,  0.166666666666666 ]
    mass: 127.600000
    reduced_to: 1
  - symbol: Te # 23
    coordinates: [  0.788888888888890,  0.677777777777778,  0.166666666666666 ]
    mass: 127.600000
    reduced_to: 1
  - symbol: Te # 24
    coordinates: [  0.888888888888890,  0.777777777777778,  0.166666666666666 ]
    mass: 127.600000
    reduced_to: 1
  - symbol: Te # 25
    coordinates: [  0.988888888888890,  0.877777777777778,  0.166666666666666 ]
    mass: 127.600000
    reduced_to: 1
  - symbol: Te # 26
    coordinates: [  0.088888888888890,  0.977777777777778,  0.166666666666666 ]
    mass: 127.600000
    reduced_to: 1
  - symbol: Te # 27
    coordinates: [  0.188888888888891,  0.077777777777778,  0.166666666666666 ]
    mass: 127.600000
    reduced_to: 1
  - symbol: Te # 28
    coordinates: [  0.288888888888891,  0.177777777777778,  0.166666666666666 ]
    mass: 127.600000
    reduced_to: 1
  - symbol: Te # 29
    coordinates: [  0.388888888888891,  0.277777777777778,  0.166666666666666 ]
    mass: 127.600000
    reduced_to: 1
  - symbol: Te # 30
    coordinates: [  0.488888888888890,  0.377777777777778,  0.166666666666666 ]
    mass: 127.600000
    reduced_to: 1
  - symbol: Te # 31
    coordinates: [  0.933333333333335,  0.266666666666667,  0.500000000000000 ]
    mass: 127.600000
    reduced_to: 1
  - symbol: Te # 32
    coordinates: [  0.033333333333335,  0.366666666666667,  0.500000000000000 ]
    mass: 127.600000
    reduced_to: 1
  - symbol: Te # 33
    coordinates: [  0.133333333333335,  0.466666666666667,  0.500000000000000 ]
    mass: 127.600000
    reduced_to: 1
  - symbol: Te # 34
    coordinates: [  0.233333333333335,  0.566666666666667,  0.500000000000000 ]
    mass: 127.600000
    reduced_to: 1
  - symbol: Te # 35
    coordinates: [  0.333333333333335,  0.666666666666667,  0.500000000000000 ]
    mass: 127.600000
    reduced_to: 1
  - symbol: Te # 36
    coordinates: [  0.433333333333335,  0.766666666666667,  0.500000000000000 ]
    mass: 127.600000
    reduced_to: 1
  - symbol: Te # 37
    coordinates: [  0.533333333333335,  0.866666666666667,  0.500000000000000 ]
    mass: 127.600000
    reduced_to: 1
  - symbol: Te # 38
    coordinates: [  0.633333333333335,  0.966666666666667,  0.500000000000000 ]
    mass: 127.600000
    reduced_to: 1
  - symbol: Te # 39
    coordinates: [  0.733333333333335,  0.066666666666667,  0.500000000000000 ]
    mass: 127.600000
    reduced_to: 1
  - symbol: Te # 40
    coordinates: [  0.833333333333335,  0.166666666666667,  0.500000000000000 ]
    mass: 127.600000
    reduced_to: 1
  - symbol: Te # 41
    coordinates: [  0.766666666666668,  0.433333333333333,  0.500000000000000 ]
    mass: 127.600000
    reduced_to: 1
  - symbol: Te # 42
    coordinates: [  0.866666666666668,  0.533333333333333,  0.500000000000000 ]
    mass: 127.600000
    reduced_to: 1
  - symbol: Te # 43
    coordinates: [  0.966666666666669,  0.633333333333333,  0.500000000000000 ]
    mass: 127.600000
    reduced_to: 1
  - symbol: Te # 44
    coordinates: [  0.066666666666668,  0.733333333333333,  0.500000000000000 ]
    mass: 127.600000
    reduced_to: 1
  - symbol: Te # 45
    coordinates: [  0.166666666666668,  0.833333333333333,  0.500000000000000 ]
    mass: 127.600000
    reduced_to: 1
  - symbol: Te # 46
    coordinates: [  0.266666666666669,  0.933333333333333,  0.500000000000000 ]
    mass: 127.600000
    reduced_to: 1
  - symbol: Te # 47
    coordinates: [  0.366666666666669,  0.033333333333333,  0.500000000000000 ]
    mass: 127.600000
    reduced_to: 1
  - symbol: Te # 48
    coordinates: [  0.466666666666669,  0.133333333333333,  0.500000000000000 ]
    mass: 127.600000
    reduced_to: 1
  - symbol: Te # 49
    coordinates: [  0.566666666666668,  0.233333333333333,  0.500000000000000 ]
    mass: 127.600000
    reduced_to: 1
  - symbol: Te # 50
    coordinates: [  0.666666666666669,  0.333333333333333,  0.500000000000000 ]
    mass: 127.600000
    reduced_to: 1
  - symbol: Te # 51
    coordinates: [  0.600000000000002,  0.600000000000000,  0.500000000000000 ]
    mass: 127.600000
    reduced_to: 1
  - symbol: Te # 52
    coordinates: [  0.700000000000002,  0.700000000000000,  0.500000000000000 ]
    mass: 127.600000
    reduced_to: 1
  - symbol: Te # 53
    coordinates: [  0.800000000000002,  0.800000000000000,  0.500000000000000 ]
    mass: 127.600000
    reduced_to: 1
  - symbol: Te # 54
    coordinates: [  0.900000000000002,  0.900000000000000,  0.500000000000000 ]
    mass: 127.600000
    reduced_to: 1
  - symbol: Te # 55
    coordinates: [  0.000000000000002,  0.000000000000000,  0.500000000000000 ]
    mass: 127.600000
    reduced_to: 1
  - symbol: Te # 56
    coordinates: [  0.100000000000002,  0.100000000000000,  0.500000000000000 ]
    mass: 127.600000
    reduced_to: 1
  - symbol: Te # 57
    coordinates: [  0.200000000000002,  0.200000000000000,  0.500000000000000 ]
    mass: 127.600000
    reduced_to: 1
  - symbol: Te # 58
    coordinates: [  0.300000000000002,  0.300000000000000,  0.500000000000000 ]
    mass: 127.600000
    reduced_to: 1
  - symbol: Te # 59
    coordinates: [  0.400000000000002,  0.400000000000000,  0.500000000000000 ]
    mass: 127.600000
    reduced_to: 1
  - symbol: Te # 60
    coordinates: [  0.500000000000002,  0.500000000000000,  0.500000000000000 ]
    mass: 127.600000
    reduced_to: 1
  - symbol: Te # 61
    coordinates: [  0.011111111111113,  0.122222222222222,  0.833333333333333 ]
    mass: 127.600000
    reduced_to: 1
  - symbol: Te # 62
    coordinates: [  0.111111111111113,  0.222222222222222,  0.833333333333333 ]
    mass: 127.600000
    reduced_to: 1
  - symbol: Te # 63
    coordinates: [  0.211111111111113,  0.322222222222222,  0.833333333333333 ]
    mass: 127.600000
    reduced_to: 1
  - symbol: Te # 64
    coordinates: [  0.311111111111113,  0.422222222222222,  0.833333333333333 ]
    mass: 127.600000
    reduced_to: 1
  - symbol: Te # 65
    coordinates: [  0.411111111111113,  0.522222222222222,  0.833333333333333 ]
    mass: 127.600000
    reduced_to: 1
  - symbol: Te # 66
    coordinates: [  0.511111111111113,  0.622222222222222,  0.833333333333333 ]
    mass: 127.600000
    reduced_to: 1
  - symbol: Te # 67
    coordinates: [  0.611111111111113,  0.722222222222222,  0.833333333333333 ]
    mass: 127.600000
    reduced_to: 1
  - symbol: Te # 68
    coordinates: [  0.711111111111113,  0.822222222222222,  0.833333333333333 ]
    mass: 127.600000
    reduced_to: 1
  - symbol: Te # 69
    coordinates: [  0.811111111111113,  0.922222222222222,  0.833333333333333 ]
    mass: 127.600000
    reduced_to: 1
  - symbol: Te # 70
    coordinates: [  0.911111111111113,  0.022222222222222,  0.833333333333333 ]
    mass: 127.600000
    reduced_to: 1
  - symbol: Te # 71
    coordinates: [  0.844444444444446,  0.288888888888889,  0.833333333333333 ]
    mass: 127.600000
    reduced_to: 1
  - symbol: Te # 72
    coordinates: [  0.944444444444446,  0.388888888888889,  0.833333333333333 ]
    mass: 127.600000
    reduced_to: 1
  - symbol: Te # 73
    coordinates: [  0.044444444444446,  0.488888888888889,  0.833333333333333 ]
    mass: 127.600000
    reduced_to: 1
  - symbol: Te # 74
    coordinates: [  0.144444444444446,  0.588888888888889,  0.833333333333333 ]
    mass: 127.600000
    reduced_to: 1
  - symbol: Te # 75
    coordinates: [  0.244444444444446,  0.688888888888889,  0.833333333333333 ]
    mass: 127.600000
    reduced_to: 1
  - symbol: Te # 76
    coordinates: [  0.344444444444446,  0.788888888888889,  0.833333333333333 ]
    mass: 127.600000
    reduced_to: 1
  - symbol: Te # 77
    coordinates: [  0.444444444444446,  0.888888888888889,  0.833333333333333 ]
    mass: 127.600000
    reduced_to: 1
  - symbol: Te # 78
    coordinates: [  0.544444444444446,  0.988888888888889,  0.833333333333333 ]
    mass: 127.600000
    reduced_to: 1
  - symbol: Te # 79
    coordinates: [  0.644444444444446,  0.088888888888889,  0.833333333333333 ]
    mass: 127.600000
    reduced_to: 1
  - symbol: Te # 80
    coordinates: [  0.744444444444446,  0.188888888888889,  0.833333333333333 ]
    mass: 127.600000
    reduced_to: 1
  - symbol: Te # 81
    coordinates: [  0.677777777777779,  0.455555555555556,  0.833333333333333 ]
    mass: 127.600000
    reduced_to: 1
  - symbol: Te # 82
    coordinates: [  0.777777777777779,  0.555555555555556,  0.833333333333333 ]
    mass: 127.600000
    reduced_to: 1
  - symbol: Te # 83
    coordinates: [  0.877777777777779,  0.655555555555556,  0.833333333333333 ]
    mass: 127.600000
    reduced_to: 1
  - symbol: Te # 84
    coordinates: [  0.977777777777779,  0.755555555555556,  0.833333333333333 ]
    mass: 127.600000
    reduced_to: 1
  - symbol: Te # 85
    coordinates: [  0.077777777777779,  0.855555555555556,  0.833333333333333 ]
    mass: 127.600000
    reduced_to: 1
  - symbol: Te # 86
    coordinates: [  0.177777777777779,  0.955555555555556,  0.833333333333333 ]
    mass: 127.600000
    reduced_to: 1
  - symbol: Te # 87
    coordinates: [  0.277777777777779,  0.055555555555556,  0.833333333333333 ]
    mass: 127.600000
    reduced_to: 1
  - symbol: Te # 88
    coordinates: [  0.377777777777779,  0.155555555555556,  0.833333333333333 ]
    mass: 127.600000
    reduced_to: 1
  - symbol: Te # 89
    coordinates: [  0.477777777777779,  0.255555555555556,  0.833333333333333 ]
    mass: 127.600000
    reduced_to: 1
  - symbol: Te # 90
    coordinates: [  0.577777777777779,  0.355555555555556,  0.833333333333333 ]
    mass: 127.600000
    reduced_to: 1
  - symbol: Pb # 91
    coordinates: [  0.011111111111112,  0.122222222222222,  0.078062871404757 ]
    mass: 207.200000
    reduced_to: 91
  - symbol: Pb # 92
    coordinates: [  0.111111111111112,  0.222222222222222,  0.078062871404757 ]
    mass: 207.200000
    reduced_to: 91
  - symbol: Pb # 93
    coordinates: [  0.211111111111112,  0.322222222222222,  0.078062871404757 ]
    mass: 207.200000
    reduced_to: 91
  - symbol: Pb # 94
    coordinates: [  0.311111111111112,  0.422222222222222,  0.078062871404757 ]
    mass: 207.200000
    reduced_to: 91
  - symbol: Pb # 95
    coordinates: [  0.411111111111112,  0.522222222222222,  0.078062871404757 ]
    mass: 207.200000
    reduced_to: 91
  - symbol: Pb # 96
    coordinates: [  0.511111111111112,  0.622222222222222,  0.078062871404757 ]
    mass: 207.200000
    reduced_to: 91
  - symbol: Pb # 97
    coordinates: [  0.611111111111112,  0.722222222222222,  0.078062871404757 ]
    mass: 207.200000
    reduced_to: 91
  - symbol: Pb # 98
    coordinates: [  0.711111111111112,  0.822222222222222,  0.078062871404757 ]
    mass: 207.200000
    reduced_to: 91
  - symbol: Pb # 99
    coordinates: [  0.811111111111112,  0.922222222222222,  0.078062871404757 ]
    mass: 207.200000
    reduced_to: 91
  - symbol: Pb # 100
    coordinates: [  0.911111111111112,  0.022222222222222,  0.078062871404757 ]
    mass: 207.200000
    reduced_to: 91
  - symbol: Pb # 101
    coordinates: [  0.844444444444446,  0.288888888888889,  0.078062871404757 ]
    mass: 207.200000
    reduced_to: 91
  - symbol: Pb # 102
    coordinates: [  0.944444444444446,  0.388888888888889,  0.078062871404757 ]
    mass: 207.200000
    reduced_to: 91
  - symbol: Pb # 103
    coordinates: [  0.044444444444446,  0.488888888888889,  0.078062871404757 ]
    mass: 207.200000
    reduced_to: 91
  - symbol: Pb # 104
    coordinates: [  0.144444444444446,  0.588888888888889,  0.078062871404757 ]
    mass: 207.200000
    reduced_to: 91
  - symbol: Pb # 105
    coordinates: [  0.244444444444446,  0.688888888888889,  0.078062871404757 ]
    mass: 207.200000
    reduced_to: 91
  - symbol: Pb # 106
    coordinates: [  0.344444444444446,  0.788888888888889,  0.078062871404757 ]
    mass: 207.200000
    reduced_to: 91
  - symbol: Pb # 107
    coordinates: [  0.444444444444446,  0.888888888888889,  0.078062871404757 ]
    mass: 207.200000
    reduced_to: 91
  - symbol: Pb # 108
    coordinates: [  0.544444444444446,  0.988888888888889,  0.078062871404757 ]
    mass: 207.200000
    reduced_to: 91
  - symbol: Pb # 109
    coordinates: [  0.644444444444446,  0.088888888888889,  0.078062871404757 ]
    mass: 207.200000
    reduced_to: 91
  - symbol: Pb # 110
    coordinates: [  0.744444444444446,  0.188888888888889,  0.078062871404757 ]
    mass: 207.200000
    reduced_to: 91
  - symbol: Pb # 111
    coordinates: [  0.677777777777779,  0.455555555555555,  0.078062871404757 ]
    mass: 207.200000
    reduced_to: 91
  - symbol: Pb # 112
    coordinates: [  0.777777777777779,  0.555555555555555,  0.078062871404757 ]
    mass: 207.200000
    reduced_to: 91
  - symbol: Pb # 113
    coordinates: [  0.877777777777779,  0.655555555555555,  0.078062871404757 ]
    mass: 207.200000
    reduced_to: 91
  - symbol: Pb # 114
    coordinates: [  0.977777777777779,  0.755555555555556,  0.078062871404757 ]
    mass: 207.200000
    reduced_to: 91
  - symbol: Pb # 115
    coordinates: [  0.077777777777779,  0.855555555555555,  0.078062871404757 ]
    mass: 207.200000
    reduced_to: 91
  - symbol: Pb # 116
    coordinates: [  0.177777777777779,  0.955555555555555,  0.078062871404757 ]
    mass: 207.200000
    reduced_to: 91
  - symbol: Pb # 117
    coordinates: [  0.277777777777779,  0.055555555555556,  0.078062871404757 ]
    mass: 207.200000
    reduced_to: 91
  - symbol: Pb # 118
    coordinates: [  0.377777777777779,  0.155555555555555,  0.078062871404757 ]
    mass: 207.200000
    reduced_to: 91
  - symbol: Pb # 119
    coordinates: [  0.477777777777779,  0.255555555555556,  0.078062871404757 ]
    mass: 207.200000
    reduced_to: 91
  - symbol: Pb # 120
    coordinates: [  0.577777777777779,  0.355555555555556,  0.078062871404757 ]
    mass: 207.200000
    reduced_to: 91
  - symbol: Pb # 121
    coordinates: [  0.000000000000001,  0.000000000000000,  0.255270461928576 ]
    mass: 207.200000
    reduced_to: 121
  - symbol: Pb # 122
    coordinates: [  0.100000000000001,  0.100000000000000,  0.255270461928576 ]
    mass: 207.200000
    reduced_to: 121
  - symbol: Pb # 123
    coordinates: [  0.200000000000001,  0.200000000000000,  0.255270461928576 ]
    mass: 207.200000
    reduced_to: 121
  - symbol: Pb # 124
    coordinates: [  0.300000000000001,  0.300000000000000,  0.255270461928576 ]
    mass: 207.200000
    reduced_to: 121
  - symbol: Pb # 125
    coordinates: [  0.400000000000001,  0.400000000000000,  0.255270461928576 ]
    mass: 207.200000
    reduced_to: 121
  - symbol: Pb # 126
    coordinates: [  0.500000000000001,  0.500000000000000,  0.255270461928576 ]
    mass: 207.200000
    reduced_to: 121
  - symbol: Pb # 127
    coordinates: [  0.600000000000001,  0.600000000000000,  0.255270461928576 ]
    mass: 207.200000
    reduced_to: 121
  - symbol: Pb # 128
    coordinates: [  0.700000000000001,  0.700000000000000,  0.255270461928576 ]
    mass: 207.200000
    reduced_to: 121
  - symbol: Pb # 129
    coordinates: [  0.800000000000001,  0.800000000000000,  0.255270461928576 ]
    mass: 207.200000
    reduced_to: 121
  - symbol: Pb # 130
    coordinates: [  0.900000000000001,  0.900000000000000,  0.255270461928576 ]
    mass: 207.200000
    reduced_to: 121
  - symbol: Pb # 131
    coordinates: [  0.833333333333334,  0.166666666666667,  0.255270461928576 ]
    mass: 207.200000
    reduced_to: 121
  - symbol: Pb # 132
    coordinates: [  0.933333333333334,  0.266666666666667,  0.255270461928576 ]
    mass: 207.200000
    reduced_to: 121
  - symbol: Pb # 133
    coordinates: [  0.033333333333334,  0.366666666666667,  0.255270461928576 ]
    mass: 207.200000
    reduced_to: 121
  - symbol: Pb # 134
    coordinates: [  0.133333333333334,  0.466666666666667,  0.255270461928576 ]
    mass: 207.200000
    reduced_to: 121
  - symbol: Pb # 135
    coordinates: [  0.233333333333334,  0.566666666666667,  0.255270461928576 ]
    mass: 207.200000
    reduced_to: 121
  - symbol: Pb # 136
    coordinates: [  0.333333333333334,  0.666666666666667,  0.255270461928576 ]
    mass: 207.200000
    reduced_to: 121
  - symbol: Pb # 137
    coordinates: [  0.433333333333334,  0.766666666666667,  0.255270461928576 ]
    mass: 207.200000
    reduced_to: 121
  - symbol: Pb # 138
    coordinates: [  0.533333333333334,  0.866666666666667,  0.255270461928576 ]
    mass: 207.200000
    reduced_to: 121
  - symbol: Pb # 139
    coordinates: [  0.633333333333334,  0.966666666666667,  0.255270461928576 ]
    mass: 207.200000
    reduced_to: 121
  - symbol: Pb # 140
    coordinates: [  0.733333333333334,  0.066666666666667,  0.255270461928576 ]
    mass: 207.200000
    reduced_to: 121
  - symbol: Pb # 141
    coordinates: [  0.666666666666668,  0.333333333333333,  0.255270461928576 ]
    mass: 207.200000
    reduced_to: 121
  - symbol: Pb # 142
    coordinates: [  0.766666666666668,  0.433333333333333,  0.255270461928576 ]
    mass: 207.200000
    reduced_to: 121
  - symbol: Pb # 143
    coordinates: [  0.866666666666668,  0.533333333333333,  0.255270461928576 ]
    mass: 207.200000
    reduced_to: 121
  - symbol: Pb # 144
    coordinates: [  0.966666666666668,  0.633333333333333,  0.255270461928576 ]
    mass: 207.200000
    reduced_to: 121
  - symbol: Pb # 145
    coordinates: [  0.066666666666668,  0.733333333333333,  0.255270461928576 ]
    mass: 207.200000
    reduced_to: 121
  - symbol: Pb # 146
    coordinates: [  0.166666666666668,  0.833333333333333,  0.255270461928576 ]
    mass: 207.200000
    reduced_to: 121
  - symbol: Pb # 147
    coordinates: [  0.266666666666668,  0.933333333333333,  0.255270461928576 ]
    mass: 207.200000
    reduced_to: 121
  - symbol: Pb # 148
    coordinates: [  0.366666666666668,  0.033333333333333,  0.255270461928576 ]
    mass: 207.200000
    reduced_to: 121
  - symbol: Pb # 149
    coordinates: [  0.466666666666668,  0.133333333333333,  0.255270461928576 ]
    mass: 207.200000
    reduced_to: 121
  - symbol: Pb # 150
    coordinates: [  0.566666666666668,  0.233333333333333,  0.255270461928576 ]
    mass: 207.200000
    reduced_to: 121
  - symbol: Pb # 151
    coordinates: [  0.922222222222224,  0.144444444444444,  0.411396204738091 ]
    mass: 207.200000
    reduced_to: 91
  - symbol: Pb # 152
    coordinates: [  0.022222222222224,  0.244444444444444,  0.411396204738091 ]
    mass: 207.200000
    reduced_to: 91
  - symbol: Pb # 153
    coordinates: [  0.122222222222224,  0.344444444444444,  0.411396204738091 ]
    mass: 207.200000
    reduced_to: 91
  - symbol: Pb # 154
    coordinates: [  0.222222222222224,  0.444444444444444,  0.411396204738091 ]
    mass: 207.200000
    reduced_to: 91
  - symbol: Pb # 155
    coordinates: [  0.322222222222224,  0.544444444444445,  0.411396204738091 ]
    mass: 207.200000
    reduced_to: 91
  - symbol: Pb # 156
    coordinates: [  0.422222222222224,  0.644444444444444,  0.411396204738091 ]
    mass: 207.200000
    reduced_to: 91
  - symbol: Pb # 157
    coordinates: [  0.522222222222224,  0.744444444444444,  0.411396204738091 ]
    mass: 207.200000
    reduced_to: 91
  - symbol: Pb # 158
    coordinates: [  0.622222222222224,  0.844444444444445,  0.411396204738091 ]
    mass: 207.200000
    reduced_to: 91
  - symbol: Pb # 159
    coordinates: [  0.722222222222224,  0.944444444444444,  0.411396204738091 ]
    mass: 207.200000
    reduced_to: 91
  - symbol: Pb # 160
    coordinates: [  0.822222222222224,  0.044444444444445,  0.411396204738091 ]
    mass: 207.200000
    reduced_to: 91
  - symbol: Pb # 161
    coordinates: [  0.755555555555557,  0.311111111111111,  0.411396204738091 ]
    mass: 207.200000
    reduced_to: 91
  - symbol: Pb # 162
    coordinates: [  0.855555555555557,  0.411111111111111,  0.411396204738091 ]
    mass: 207.200000
    reduced_to: 91
  - symbol: Pb # 163
    coordinates: [  0.955555555555557,  0.511111111111111,  0.411396204738091 ]
    mass: 207.200000
    reduced_to: 91
  - symbol: Pb # 164
    coordinates: [  0.055555555555557,  0.611111111111111,  0.411396204738091 ]
    mass: 207.200000
    reduced_to: 91
  - symbol: Pb # 165
    coordinates: [  0.155555555555557,  0.711111111111111,  0.411396204738091 ]
    mass: 207.200000
    reduced_to: 91
  - symbol: Pb # 166
    coordinates: [  0.255555555555557,  0.811111111111111,  0.411396204738091 ]
    mass: 207.200000
    reduced_to: 91
  - symbol: Pb # 167
    coordinates: [  0.355555555555557,  0.911111111111111,  0.411396204738091 ]
    mass: 207.200000
    reduced_to: 91
  - symbol: Pb # 168
    coordinates: [  0.455555555555557,  0.011111111111111,  0.411396204738091 ]
    mass: 207.200000
    reduced_to: 91
  - symbol: Pb # 169
    coordinates: [  0.555555555555557,  0.111111111111111,  0.411396204738091 ]
    mass: 207.200000
    reduced_to: 91
  - symbol: Pb # 170
    coordinates: [  0.655555555555557,  0.211111111111111,  0.411396204738091 ]
    mass: 207.200000
    reduced_to: 91
  - symbol: Pb # 171
    coordinates: [  0.588888888888890,  0.477777777777778,  0.411396204738091 ]
    mass: 207.200000
    reduced_to: 91
  - symbol: Pb # 172
    coordinates: [  0.688888888888890,  0.577777777777778,  0.411396204738091 ]
    mass: 207.200000
    reduced_to: 91
  - symbol: Pb # 173
    coordinates: [  0.788888888888891,  0.677777777777778,  0.411396204738091 ]
    mass: 207.200000
    reduced_to: 91
  - symbol: Pb # 174
    coordinates: [  0.888888888888891,  0.777777777777778,  0.411396204738091 ]
    mass: 207.200000
    reduced_to: 91
  - symbol: Pb # 175
    coordinates: [  0.988888888888890,  0.877777777777778,  0.411396204738091 ]
    mass: 207.200000
    reduced_to: 91
  - symbol: Pb # 176
    coordinates: [  0.088888888888890,  0.977777777777778,  0.411396204738091 ]
    mass: 207.200000
    reduced_to: 91
  - symbol: Pb # 177
    coordinates: [  0.188888888888891,  0.077777777777778,  0.411396204738091 ]
    mass: 207.200000
    reduced_to: 91
  - symbol: Pb # 178
    coordinates: [  0.288888888888891,  0.177777777777778,  0.411396204738091 ]
    mass: 207.200000
    reduced_to: 91
  - symbol: Pb # 179
    coordinates: [  0.388888888888891,  0.277777777777778,  0.411396204738091 ]
    mass: 207.200000
    reduced_to: 91
  - symbol: Pb # 180
    coordinates: [  0.488888888888890,  0.377777777777778,  0.411396204738091 ]
    mass: 207.200000
    reduced_to: 91
  - symbol: Pb # 181
    coordinates: [  0.011111111111112,  0.122222222222222,  0.588603795261909 ]
    mass: 207.200000
    reduced_to: 121
  - symbol: Pb # 182
    coordinates: [  0.111111111111112,  0.222222222222222,  0.588603795261909 ]
    mass: 207.200000
    reduced_to: 121
  - symbol: Pb # 183
    coordinates: [  0.211111111111113,  0.322222222222222,  0.588603795261909 ]
    mass: 207.200000
    reduced_to: 121
  - symbol: Pb # 184
    coordinates: [  0.311111111111113,  0.422222222222222,  0.588603795261909 ]
    mass: 207.200000
    reduced_to: 121
  - symbol: Pb # 185
    coordinates: [  0.411111111111113,  0.522222222222222,  0.588603795261909 ]
    mass: 207.200000
    reduced_to: 121
  - symbol: Pb # 186
    coordinates: [  0.511111111111113,  0.622222222222222,  0.588603795261909 ]
    mass: 207.200000
    reduced_to: 121
  - symbol: Pb # 187
    coordinates: [  0.611111111111112,  0.722222222222222,  0.588603795261909 ]
    mass: 207.200000
    reduced_to: 121
  - symbol: Pb # 188