phonopy:
  version: "2.21.0"
  frequency_unit_conversion_factor: 15.633302
  symmetry_tolerance: 1.00000e-04

space_group:
  type: "P4/nmm"
  number: 129
  Hall_symbol: "P 4ab 2ab -1ab"

primitive_matrix:
- [  1.000000000000000,  0.000000000000000,  0.000000000000000 ]
- [  0.000000000000000,  1.000000000000000,  0.000000000000000 ]
- [  0.000000000000000,  0.000000000000000,  1.000000000000000 ]

supercell_matrix:
- [   5,   0,   0 ]
- [   0,   5,   0 ]
- [   0,   0,   3 ]

primitive_cell:
  lattice:
  - [     4.492970118897659,     0.000000000000000,     0.000000000000000 ] # a
  - [    -0.000000000000000,     4.492970118897659,     0.000000000000000 ] # b
  - [     0.000000000000000,     0.000000000000000,     9.129131200506325 ] # c
  points:
  - symbol: Ba # 1
    coordinates: [  1.000000000000000,  0.500000000000000,  0.195381409897893 ]
    mass: 137.327000
  - symbol: Ba # 2
    coordinates: [  0.500000000000000,  0.000000000000000,  0.804618590102107 ]
    mass: 137.327000
  - symbol: Cu # 3
    coordinates: [  0.500000000000000,  0.000000000000000,  0.404693969730292 ]
    mass: 63.546000
  - symbol: Cu # 4
    coordinates: [  1.000000000000000,  0.500000000000000,  0.595306030269708 ]
    mass: 63.546000
  - symbol: S  # 5
    coordinates: [  0.500000000000000,  0.500000000000000,  0.500000000000000 ]
    mass: 32.065000
  - symbol: S  # 6
    coordinates: [  0.000000000000000,  0.000000000000000,  0.500000000000000 ]
    mass: 32.065000
  - symbol: S  # 7
    coordinates: [  0.500000000000000,  0.000000000000000,  0.150256154014854 ]
    mass: 32.065000
  - symbol: S  # 8
    coordinates: [  1.000000000000000,  0.500000000000000,  0.849743845985146 ]
    mass: 32.065000
  reciprocal_lattice: # without 2pi
  - [     0.222569920016594,     0.000000000000000,     0.000000000000000 ] # a*
  - [     0.000000000000000,     0.222569920016594,     0.000000000000000 ] # b*
  - [    -0.000000000000000,    -0.000000000000000,     0.109539448829976 ] # c*

unit_cell:
  lattice:
  - [     4.492970118897659,     0.000000000000000,     0.000000000000000 ] # a
  - [    -0.000000000000000,     4.492970118897659,     0.000000000000000 ] # b
  - [    -0.000000000000000,     0.000000000000000,     9.129131200506327 ] # c
  points:
  - symbol: Ba # 1
    coordinates: [  0.000000000000000,  0.500000000000000,  0.195381409897893 ]
    mass: 137.327000
    reduced_to: 1
  - symbol: Ba # 2
    coordinates: [  0.500000000000000,  0.000000000000000,  0.804618590102107 ]
    mass: 137.327000
    reduced_to: 2
  - symbol: Cu # 3
    coordinates: [  0.500000000000000,  0.000000000000000,  0.404693969730292 ]
    mass: 63.546000
    reduced_to: 3
  - symbol: Cu # 4
    coordinates: [ -0.000000000000000,  0.500000000000000,  0.595306030269708 ]
    mass: 63.546000
    reduced_to: 4
  - symbol: S  # 5
    coordinates: [  0.500000000000000,  0.500000000000000,  0.500000000000000 ]
    mass: 32.065000
    reduced_to: 5
  - symbol: S  # 6
    coordinates: [  0.000000000000000,  0.000000000000000,  0.500000000000000 ]
    mass: 32.065000
    reduced_to: 6
  - symbol: S  # 7
    coordinates: [  0.500000000000000,  0.000000000000000,  0.150256154014854 ]
    mass: 32.065000
    reduced_to: 7
  - symbol: S  # 8
    coordinates: [  0.000000000000000,  0.500000000000000,  0.849743845985146 ]
    mass: 32.065000
    reduced_to: 8

supercell:
  lattice:
  - [    22.464850594488297,     0.000000000000000,     0.000000000000001 ] # a
  - [    -0.000000000000001,    22.464850594488297,     0.000000000000001 ] # b
  - [     0.000000000000000,     0.000000000000000,    27.387393601518980 ] # c
  points:
  - symbol: Ba # 1
    coordinates: [  0.000000000000000,  0.100000000000000,  0.065127136632631 ]
    mass: 137.327000
    reduced_to: 1
  - symbol: Ba # 2
    coordinates: [  0.200000000000000,  0.100000000000000,  0.065127136632631 ]
    mass: 137.327000
    reduced_to: 1
  - symbol: Ba # 3
    coordinates: [  0.400000000000000,  0.100000000000000,  0.065127136632631 ]
    mass: 137.327000
    reduced_to: 1
  - symbol: Ba # 4
    coordinates: [  0.600000000000000,  0.100000000000000,  0.065127136632631 ]
    mass: 137.327000
    reduced_to: 1
  - symbol: Ba # 5
    coordinates: [  0.800000000000000,  0.100000000000000,  0.065127136632631 ]
    mass: 137.327000
    reduced_to: 1
  - symbol: Ba # 6
    coordinates: [  0.000000000000000,  0.300000000000000,  0.065127136632631 ]
    mass: 137.327000
    reduced_to: 1
  - symbol: Ba # 7
    coordinates: [  0.200000000000000,  0.300000000000000,  0.065127136632631 ]
    mass: 137.327000
    reduced_to: 1
  - symbol: Ba # 8
    coordinates: [  0.400000000000000,  0.300000000000000,  0.065127136632631 ]
    mass: 137.327000
    reduced_to: 1
  - symbol: Ba # 9
    coordinates: [  0.600000000000000,  0.300000000000000,  0.065127136632631 ]
    mass: 137.327000
    reduced_to: 1
  - symbol: Ba # 10
    coordinates: [  0.800000000000000,  0.300000000000000,  0.065127136632631 ]
    mass: 137.327000
    reduced_to: 1
  - symbol: Ba # 11
    coordinates: [  0.000000000000000,  0.500000000000000,  0.065127136632631 ]
    mass: 137.327000
    reduced_to: 1
  - symbol: Ba # 12
    coordinates: [  0.200000000000000,  0.500000000000000,  0.065127136632631 ]
    mass: 137.327000
    reduced_to: 1
  - symbol: Ba # 13
    coordinates: [  0.400000000000000,  0.500000000000000,  0.065127136632631 ]
    mass: 137.327000
    reduced_to: 1
  - symbol: Ba # 14
    coordinates: [  0.600000000000000,  0.500000000000000,  0.065127136632631 ]
    mass: 137.327000
    reduced_to: 1
  - symbol: Ba # 15
    coordinates: [  0.800000000000000,  0.500000000000000,  0.065127136632631 ]
    mass: 137.327000
    reduced_to: 1
  - symbol: Ba # 16
    coordinates: [  0.000000000000000,  0.700000000000000,  0.065127136632631 ]
    mass: 137.327000
    reduced_to: 1
  - symbol: Ba # 17
    coordinates: [  0.200000000000000,  0.700000000000000,  0.065127136632631 ]
    mass: 137.327000
    reduced_to: 1
  - symbol: Ba # 18
    coordinates: [  0.400000000000000,  0.700000000000000,  0.065127136632631 ]
    mass: 137.327000
    reduced_to: 1
  - symbol: Ba # 19
    coordinates: [  0.600000000000000,  0.700000000000000,  0.065127136632631 ]
    mass: 137.327000
    reduced_to: 1
  - symbol: Ba # 20
    coordinates: [  0.800000000000000,  0.700000000000000,  0.065127136632631 ]
    mass: 137.327000
    reduced_to: 1
  - symbol: Ba # 21
    coordinates: [  0.000000000000000,  0.900000000000000,  0.065127136632631 ]
    mass: 137.327000
    reduced_to: 1
  - symbol: Ba # 22
    coordinates: [  0.200000000000000,  0.900000000000000,  0.065127136632631 ]
    mass: 137.327000
    reduced_to: 1
  - symbol: Ba # 23
    coordinates: [  0.400000000000000,  0.900000000000000,  0.065127136632631 ]
    mass: 137.327000
    reduced_to: 1
  - symbol: Ba # 24
    coordinates: [  0.600000000000000,  0.900000000000000,  0.065127136632631 ]
    mass: 137.327000
    reduced_to: 1
  - symbol: Ba # 25
    coordinates: [  0.800000000000000,  0.900000000000000,  0.065127136632631 ]
    mass: 137.327000
    reduced_to: 1
  - symbol: Ba # 26
    coordinates: [  0.000000000000000,  0.100000000000000,  0.398460469965964 ]
    mass: 137.327000
    reduced_to: 1
  - symbol: Ba # 27
    coordinates: [  0.200000000000000,  0.100000000000000,  0.398460469965964 ]
    mass: 137.327000
    reduced_to: 1
  - symbol: Ba # 28
    coordinates: [  0.400000000000000,  0.100000000000000,  0.398460469965964 ]
    mass: 137.327000
    reduced_to: 1
  - symbol: Ba # 29
    coordinates: [  0.600000000000000,  0.100000000000000,  0.398460469965964 ]
    mass: 137.327000
    reduced_to: 1
  - symbol: Ba # 30
    coordinates: [  0.800000000000000,  0.100000000000000,  0.398460469965964 ]
    mass: 137.327000
    reduced_to: 1
  - symbol: Ba # 31
    coordinates: [  0.000000000000000,  0.300000000000000,  0.398460469965964 ]
    mass: 137.327000
    reduced_to: 1
  - symbol: Ba # 32
    coordinates: [  0.200000000000000,  0.300000000000000,  0.398460469965964 ]
    mass: 137.327000
    reduced_to: 1
  - symbol: Ba # 33
    coordinates: [  0.400000000000000,  0.300000000000000,  0.398460469965964 ]
    mass: 137.327000
    reduced_to: 1
  - symbol: Ba # 34
    coordinates: [  0.600000000000000,  0.300000000000000,  0.398460469965964 ]
    mass: 137.327000
    reduced_to: 1
  - symbol: Ba # 35
    coordinates: [  0.800000000000000,  0.300000000000000,  0.398460469965964 ]
    mass: 137.327000
    reduced_to: 1
  - symbol: Ba # 36
    coordinates: [  0.000000000000000,  0.500000000000000,  0.398460469965964 ]
    mass: 137.327000
    reduced_to: 1
  - symbol: Ba # 37
    coordinates: [  0.200000000000000,  0.500000000000000,  0.398460469965964 ]
    mass: 137.327000
    reduced_to: 1
  - symbol: Ba # 38
    coordinates: [  0.400000000000000,  0.500000000000000,  0.398460469965964 ]
    mass: 137.327000
    reduced_to: 1
  - symbol: Ba # 39
    coordinates: [  0.600000000000000,  0.500000000000000,  0.398460469965964 ]
    mass: 137.327000
    reduced_to: 1
  - symbol: Ba # 40
    coordinates: [  0.800000000000000,  0.500000000000000,  0.398460469965964 ]
    mass: 137.327000
    reduced_to: 1
  - symbol: Ba # 41
    coordinates: [  0.000000000000000,  0.700000000000000,  0.398460469965964 ]
    mass: 137.327000
    reduced_to: 1
  - symbol: Ba # 42
    coordinates: [  0.200000000000000,  0.700000000000000,  0.398460469965964 ]
    mass: 137.327000
    reduced_to: 1
  - symbol: Ba # 43
    coordinates: [  0.400000000000000,  0.700000000000000,  0.398460469965964 ]
    mass: 137.327000
    reduced_to: 1
  - symbol: Ba # 44
    coordinates: [  0.600000000000000,  0.700000000000000,  0.398460469965964 ]
    mass: 137.327000
    reduced_to: 1
  - symbol: Ba # 45
    coordinates: [  0.800000000000000,  0.700000000000000,  0.398460469965964 ]
    mass: 137.327000
    reduced_to: 1
  - symbol: Ba # 46
    coordinates: [  0.000000000000000,  0.900000000000000,  0.398460469965964 ]
    mass: 137.327000
    reduced_to: 1
  - symbol: Ba # 47
    coordinates: [  0.200000000000000,  0.900000000000000,  0.398460469965964 ]
    mass: 137.327000
    reduced_to: 1
  - symbol: Ba # 48
    coordinates: [  0.400000000000000,  0.900000000000000,  0.398460469965964 ]
    mass: 137.327000
    reduced_to: 1
  - symbol: Ba # 49
    coordinates: [  0.600000000000000,  0.900000000000000,  0.398460469965964 ]
    mass: 137.327000
    reduced_to: 1
  - symbol: Ba # 50
    coordinates: [  0.800000000000000,  0.900000000000000,  0.398460469965964 ]
    mass: 137.327000
    reduced_to: 1
  - symbol: Ba # 51
    coordinates: [  0.000000000000000,  0.100000000000000,  0.731793803299298 ]
    mass: 137.327000
    reduced_to: 1
  - symbol: Ba # 52
    coordinates: [  0.200000000000000,  0.100000000000000,  0.731793803299298 ]
    mass: 137.327000
    reduced_to: 1
  - symbol: Ba # 53
    coordinates: [  0.400000000000000,  0.100000000000000,  0.731793803299298 ]
    mass: 137.327000
    reduced_to: 1
  - symbol: Ba # 54
    coordinates: [  0.600000000000000,  0.100000000000000,  0.731793803299298 ]
    mass: 137.327000
    reduced_to: 1
  - symbol: Ba # 55
    coordinates: [  0.800000000000000,  0.100000000000000,  0.731793803299298 ]
    mass: 137.327000
    reduced_to: 1
  - symbol: Ba # 56
    coordinates: [  0.000000000000000,  0.300000000000000,  0.731793803299298 ]
    mass: 137.327000
    reduced_to: 1
  - symbol: Ba # 57
    coordinates: [  0.200000000000000,  0.300000000000000,  0.731793803299298 ]
    mass: 137.327000
    reduced_to: 1
  - symbol: Ba # 58
    coordinates: [  0.400000000000000,  0.300000000000000,  0.731793803299298 ]
    mass: 137.327000
    reduced_to: 1
  - symbol: Ba # 59
    coordinates: [  0.600000000000000,  0.300000000000000,  0.731793803299298 ]
    mass: 137.327000
    reduced_to: 1
  - symbol: Ba # 60
    coordinates: [  0.800000000000000,  0.300000000000000,  0.731793803299298 ]
    mass: 137.327000
    reduced_to: 1
  - symbol: Ba # 61
    coordinates: [  0.000000000000000,  0.500000000000000,  0.731793803299298 ]
    mass: 137.327000
    reduced_to: 1
  - symbol: Ba # 62
    coordinates: [  0.200000000000000,  0.500000000000000,  0.731793803299298 ]
    mass: 137.327000
    reduced_to: 1
  - symbol: Ba # 63
    coordinates: [  0.400000000000000,  0.500000000000000,  0.731793803299298 ]
    mass: 137.327000
    reduced_to: 1
  - symbol: Ba # 64
    coordinates: [  0.600000000000000,  0.500000000000000,  0.731793803299298 ]
    mass: 137.327000
    reduced_to: 1
  - symbol: Ba # 65
    coordinates: [  0.800000000000000,  0.500000000000000,  0.731793803299298 ]
    mass: 137.327000
    reduced_to: 1
  - symbol: Ba # 66
    coordinates: [  0.000000000000000,  0.700000000000000,  0.731793803299298 ]
    mass: 137.327000
    reduced_to: 1
  - symbol: Ba # 67
    coordinates: [  0.200000000000000,  0.700000000000000,  0.731793803299298 ]
    mass: 137.327000
    reduced_to: 1
  - symbol: Ba # 68
    coordinates: [  0.400000000000000,  0.700000000000000,  0.731793803299298 ]
    mass: 137.327000
    reduced_to: 1
  - symbol: Ba # 69
    coordinates: [  0.600000000000000,  0.700000000000000,  0.731793803299298 ]
    mass: 137.327000
    reduced_to: 1
  - symbol: Ba # 70
    coordinates: [  0.800000000000000,  0.700000000000000,  0.731793803299298 ]
    mass: 137.327000
    reduced_to: 1
  - symbol: Ba # 71
    coordinates: [  0.000000000000000,  0.900000000000000,  0.731793803299298 ]
    mass: 137.327000
    reduced_to: 1
  - symbol: Ba # 72
    coordinates: [  0.200000000000000,  0.900000000000000,  0.731793803299298 ]
    mass: 137.327000
    reduced_to: 1
  - symbol: Ba # 73
    coordinates: [  0.400000000000000,  0.900000000000000,  0.731793803299298 ]
    mass: 137.327000
    reduced_to: 1
  - symbol: Ba # 74
    coordinates: [  0.600000000000000,  0.900000000000000,  0.731793803299298 ]
    mass: 137.327000
    reduced_to: 1
  - symbol: Ba # 75
    coordinates: [  0.800000000000000,  0.900000000000000,  0.731793803299298 ]
    mass: 137.327000
    reduced_to: 1
  - symbol: Ba # 76
    coordinates: [  0.100000000000000,  0.000000000000000,  0.268206196700702 ]
    mass: 137.327000
    reduced_to: 76
  - symbol: Ba # 77
    coordinates: [  0.300000000000000,  0.000000000000000,  0.268206196700702 ]
    mass: 137.327000
    reduced_to: 76
  - symbol: Ba # 78
    coordinates: [  0.500000000000000,  0.000000000000000,  0.268206196700702 ]
    mass: 137.327000
    reduced_to: 76
  - symbol: Ba # 79
    coordinates: [  0.700000000000000,  0.000000000000000,  0.268206196700702 ]
    mass: 137.327000
    reduced_to: 76
  - symbol: Ba # 80
    coordinates: [  0.900000000000000,  0.000000000000000,  0.268206196700702 ]
    mass: 137.327000
    reduced_to: 76
  - symbol: Ba # 81
    coordinates: [  0.100000000000000,  0.200000000000000,  0.268206196700702 ]
    mass: 137.327000
    reduced_to: 76
  - symbol: Ba # 82
    coordinates: [  0.300000000000000,  0.200000000000000,  0.268206196700702 ]
    mass: 137.327000
    reduced_to: 76
  - symbol: Ba # 83
    coordinates: [  0.500000000000000,  0.200000000000000,  0.268206196700702 ]
    mass: 137.327000
    reduced_to: 76
  - symbol: Ba # 84
    coordinates: [  0.700000000000000,  0.200000000000000,  0.268206196700702 ]
    mass: 137.327000
    reduced_to: 76
  - symbol: Ba # 85
    coordinates: [  0.900000000000000,  0.200000000000000,  0.268206196700702 ]
    mass: 137.327000
    reduced_to: 76
  - symbol: Ba # 86
    coordinates: [  0.100000000000000,  0.400000000000000,  0.268206196700702 ]
    mass: 137.327000
    reduced_to: 76
  - symbol: Ba # 87
    coordinates: [  0.300000000000000,  0.400000000000000,  0.268206196700702 ]
    mass: 137.327000
    reduced_to: 76
  - symbol: Ba # 88
    coordinates: [  0.500000000000000,  0.400000000000000,  0.268206196700702 ]
    mass: 137.327000
    reduced_to: 76
  - symbol: Ba # 89
    coordinates: [  0.700000000000000,  0.400000000000000,  0.268206196700702 ]
    mass: 137.327000
    reduced_to: 76
  - symbol: Ba # 90
    coordinates: [  0.900000000000000,  0.400000000000000,  0.268206196700702 ]
    mass: 137.327000
    reduced_to: 76
  - symbol: Ba # 91
    coordinates: [  0.100000000000000,  0.600000000000000,  0.268206196700702 ]
    mass: 137.327000
    reduced_to: 76
  - symbol: Ba # 92
    coordinates: [  0.300000000000000,  0.600000000000000,  0.268206196700702 ]
    mass: 137.327000
    reduced_to: 76
  - symbol: Ba # 93
    coordinates: [  0.500000000000000,  0.600000000000000,  0.268206196700702 ]
    mass: 137.327000
    reduced_to: 76
  - symbol: Ba # 94
    coordinates: [  0.700000000000000,  0.600000000000000,  0.268206196700702 ]
    mass: 137.327000
    reduced_to: 76
  - symbol: Ba # 95
    coordinates: [  0.900000000000000,  0.600000000000000,  0.268206196700702 ]
    mass: 137.327000
    reduced_to: 76
  - symbol: Ba # 96
    coordinates: [  0.100000000000000,  0.800000000000000,  0.268206196700702 ]
    mass: 137.327000
    reduced_to: 76
  - symbol: Ba # 97
    coordinates: [  0.300000000000000,  0.800000000000000,  0.268206196700702 ]
    mass: 137.327000
    reduced_to: 76
  - symbol: Ba # 98
    coordinates: [  0.500000000000000,  0.800000000000000,  0.268206196700702 ]
    mass: 137.327000
    reduced_to: 76
  - symbol: Ba # 99
    coordinates: [  0.700000000000000,  0.800000000000000,  0.268206196700702 ]
    mass: 137.327000
    reduced_to: 76
  - symbol: Ba # 100
    coordinates: [  0.900000000000000,  0.800000000000000,  0.268206196700702 ]
    mass: 137.327000
    reduced_to: 76
  - symbol: Ba # 101
    coordinates: [  0.100000000000000,  0.000000000000000,  0.601539530034036 ]
    mass: 137.327000
    reduced_to: 76
  - symbol: Ba # 102
    coordinates: [  0.300000000000000,  0.000000000000000,  0.601539530034036 ]
    mass: 137.327000
    reduced_to: 76
  - symbol: Ba # 103
    coordinates: [  0.500000000000000,  0.000000000000000,  0.601539530034036 ]
    mass: 137.327000
    reduced_to: 76
  - symbol: Ba # 104
    coordinates: [  0.700000000000000,  0.000000000000000,  0.601539530034036 ]
    mass: 137.327000
    reduced_to: 76
  - symbol: Ba # 105
    coordinates: [  0.900000000000000,  0.000000000000000,  0.601539530034036 ]
    mass: 137.327000
    reduced_to: 76
  - symbol: Ba # 106
    coordinates: [  0.100000000000000,  0.200000000000000,  0.601539530034036 ]
    mass: 137.327000
    reduced_to: 76
  - symbol: Ba # 107
    coordinates: [  0.300000000000000,  0.200000000000000,  0.601539530034036 ]
    mass: 137.327000
    reduced_to: 76
  - symbol: Ba # 108
    coordinates: [  0.500000000000000,  0.200000000000000,  0.601539530034036 ]
    mass: 137.327000
    reduced_to: 76
  - symbol: Ba # 109
    coordinates: [  0.700000000000000,  0.200000000000000,  0.601539530034036 ]
    mass: 137.327000
    reduced_to: 76
  - symbol: Ba # 110
    coordinates: [  0.900000000000000,  0.200000000000000,  0.601539530034036 ]
    mass: 137.327000
    reduced_to: 76
  - symbol: Ba # 111
    coordinates: [  0.100000000000000,  0.400000000000000,  0.601539530034036 ]
    mass: 137.327000
    reduced_to: 76
  - symbol: Ba # 112
    coordinates: [  0.300000000000000,  0.400000000000000,  0.601539530034036 ]
    mass: 137.327000
    reduced_to: 76
  - symbol: Ba # 113
    coordinates: [  0.500000000000000,  0.400000000000000,  0.601539530034036 ]
    mass: 137.327000
    reduced_to: 76
  - symbol: Ba # 114
    coordinates: [  0.700000000000000,  0.400000000000000,  0.601539530034036 ]
    mass: 137.327000
    reduced_to: 76
  - symbol: Ba # 115
    coordinates: [  0.900000000000000,  0.400000000000000,  0.601539530034036 ]
    mass: 137.327000
    reduced_to: 76
  - symbol: Ba # 116
    coordinates: [  0.100000000000000,  0.600000000000000,  0.601539530034036 ]
    mass: 137.327000
    reduced_to: 76
  - symbol: Ba # 117
    coordinates: [  0.300000000000000,  0.600000000000000,  0.601539530034036 ]
    mass: 137.327000
    reduced_to: 76
  - symbol: Ba # 118
    coordinates: [  0.500000000000000,  0.600000000000000,  0.601539530034036 ]
    mass: 137.327000
    reduced_to: 76
  - symbol: Ba # 119
    coordinates: [  0.700000000000000,  0.600000000000000,  0.601539530034036 ]
    mass: 137.327000
    reduced_to: 76
  - symbol: Ba # 120
    coordinates: [  0.900000000000000,  0.600000000000000,  0.601539530034036 ]
    mass: 137.327000
    reduced_to: 76
  - symbol: Ba # 121
    coordinates: [  0.100000000000000,  0.800000000000000,  0.601539530034036 ]
    mass: 137.327000
    reduced_to: 76
  - symbol: Ba # 122
    coordinates: [  0.300000000000000,  0.800000000000000,  0.601539530034036 ]
    mass: 137.327000
    reduced_to: 76
  - symbol: Ba # 123
    coordinates: [  0.500000000000000,  0.800000000000000,  0.601539530034036 ]
    mass: 137.327000
    reduced_to: 76
  - symbol: Ba # 124
    coordinates: [  0.700000000000000,  0.800000000000000,  0.601539530034036 ]
    mass: 137.327000
    reduced_to: 76
  - symbol: Ba # 125
    coordinates: [  0.900000000000000,  0.800000000000000,  0.601539530034036 ]
    mass: 137.327000
    reduced_to: 76
  - symbol: Ba # 126
    coordinates: [  0.100000000000000,  0.000000000000000,  0.934872863367369 ]
    mass: 137.327000
    reduced_to: 76
  - symbol: Ba # 127
    coordinates: [  0.300000000000000,  0.000000000000000,  0.934872863367369 ]
    mass: 137.327000
    reduced_to: 76
  - symbol: Ba # 128
    coordinates: [  0.500000000000000,  0.000000000000000,  0.934872863367369 ]
    mass: 137.327000
    reduced_to: 76
  - symbol: Ba # 129
    coordinates: [  0.700000000000000,  0.000000000000000,  0.934872863367369 ]
    mass: 137.327000
    reduced_to: 76
  - symbol: Ba # 130
    coordinates: [  0.900000000000000,  0.000000000000000,  0.934872863367369 ]
    mass: 137.327000
    reduced_to: 76
  - symbol: Ba # 131
    coordinates: [  0.100000000000000,  0.200000000000000,  0.934872863367369 ]
    mass: 137.327000
    reduced_to: 76
  - symbol: Ba # 132
    coordinates: [  0.300000000000000,  0.200000000000000,  0.934872863367369 ]
    mass: 137.327000
    reduced_to: 76
  - symbol: Ba # 133
    coordinates: [  0.500000000000000,  0.200000000000000,  0.934872863367369 ]
    mass: 137.327000
    reduced_to: 76
  - symbol: Ba # 134
    coordinates: [  0.700000000000000,  0.200000000000000,  0.934872863367369 ]
    mass: 137.327000
    reduced_to: 76
  - symbol: Ba # 135
    coordinates: [  0.900000000000000,  0.200000000000000,  0.934872863367369 ]
    mass: 137.327000
    reduced_to: 76
  - symbol: Ba # 136
    coordinates: [  0.100000000000000,  0.400000000000000,  0.934872863367369 ]
    mass: 137.327000
    reduced_to: 76
  - symbol: Ba # 137
    coordinates: [  0.300000000000000,  0.400000000000000,  0.934872863367369 ]
    mass: 137.327000
    reduced_to: 76
  - symbol: Ba # 138
    coordinates: [  0.500000000000000,  0.400000000000000,  0.934872863367369 ]
    mass: 137.327000
    reduced_to: 76
  - symbol: Ba # 139
    coordinates: [  0.700000000000000,  0.400000000000000,  0.934872863367369 ]
    mass: 137.327000
    reduced_to: 76
  - symbol: Ba # 140
    coordinates: [  0.900000000000000,  0.400000000000000,  0.934872863367369 ]
    mass: 137.327000
    reduced_to: 76
  - symbol: Ba # 141
    coordinates: [  0.100000000000000,  0.600000000000000,  0.934872863367369 ]
    mass: 137.327000
    reduced_to: 76
  - symbol: Ba # 142
    coordinates: [  0.300000000000000,  0.600000000000000,  0.934872863367369 ]
    mass: 137.327000
    reduced_to: 76
  - symbol: Ba # 143
    coordinates: [  0.500000000000000,  0.600000000000000,  0.934872863367369 ]
    mass: 137.327000
    reduced_to: 76
  - symbol: Ba # 144
    coordinates: [  0.700000000000000,  0.600000000000000,  0.934872863367369 ]
    mass: 137.327000
    reduced_to: 76
  - symbol: Ba # 145
    coordinates: [  0.900000000000000,  0.600000000000000,  0.934872863367369 ]
    mass: 137.327000
    reduced_to: 76
  - symbol: Ba # 146
    coordinates: [  0.100000000000000,  0.800000000000000,  0.934872863367369 ]
    mass: 137.327000
    reduced_to: 76
  - symbol: Ba # 147
    coordinates: [  0.300000000000000,  0.800000000000000,  0.934872863367369 ]
    mass: 137.327000
    reduced_to: 76
  - symbol: Ba # 148
    coordinates: [  0.500000000000000,  0.800000000000000,  0.934872863367369 ]
    mass: 137.327000
    reduced_to: 76
  - symbol: Ba # 149
    coordinates: [  0.700000000000000,  0.800000000000000,  0.934872863367369 ]
    mass: 137.327000
    reduced_to: 76
  - symbol: Ba # 150
    coordinates: [  0.900000000000000,  0.800000000000000,  0.934872863367369 ]
    mass: 137.327000
    reduced_to: 76
  - symbol: Cu # 151
    coordinates: [  0.100000000000000,  0.000000000000000,  0.134897989910097 ]
    mass: 63.546000
    reduced_to: 151
  - symbol: Cu # 152
    coordinates: [  0.300000000000000,  0.000000000000000,  0.134897989910097 ]
    mass: 63.546000
    reduced_to: 151
  - symbol: Cu # 153
    coordinates: [  0.500000000000000,  0.000000000000000,  0.134897989910097 ]
    mass: 63.546000
    reduced_to: 151
  - symbol: Cu # 154
    coordinates: [  0.700000000000000,  0.000000000000000,  0.134897989910097 ]
    mass: 63.546000
    reduced_to: 151
  - symbol: Cu # 155
    coordinates: [  0.900000000000000,  0.000000000000000,  0.134897989910097 ]
    mass: 63.546000
    reduced_to: 151
  - symbol: Cu # 156
    coordinates: [  0.100000000000000,  0.200000000000000,  0.134897989910097 ]
    mass: 63.546000
    reduced_to: 151
  - symbol: Cu # 157
    coordinates: [  0.300000000000000,  0.200000000000000,  0.134897989910097 ]
    mass: 63.546000
    reduced_to: 151
  - symbol: Cu # 158
    coordinates: [  0.500000000000000,  0.200000000000000,  0.134897989910097 ]
    mass: 63.546000
    reduced_to: 151
  - symbol: Cu # 159
    coordinates: [  0.700000000000000,  0.200000000000000,  0.134897989910097 ]
    mass: 63.546000
    reduced_to: 151
  - symbol: Cu # 160
    coordinates: [  0.900000000000000,  0.200000000000000,  0.134897989910097 ]
    mass: 63.546000
    reduced_to: 151
  - symbol: Cu # 161
    coordinates: [  0.100000000000000,  0.400000000000000,  0.134897989910097 ]
    mass: 63.546000
    reduced_to: 151
  - symbol: Cu # 162
    coordinates: [  0.300000000000000,  0.400000000000000,  0.134897989910097 ]
    mass: 63.546000
    reduced_to: 151
  - symbol: Cu # 163
    coordinates: [  0.500000000000000,  0.400000000000000,  0.134897989910097 ]
    mass: 63.546000
    reduced_to: 151
  - symbol: Cu # 164
    coordinates: [  0.700000000000000,  0.400000000000000,  0.134897989910097 ]
    mass: 63.546000
    reduced_to: 151
  - symbol: Cu # 165
    coordinates: [  0.900000000000000,  0.400000000000000,  0.134897989910097 ]
    mass: 63.546000
    reduced_to: 151
  - symbol: Cu # 166
    coordinates: [  0.100000000000000,  0.600000000000000,  0.134897989910097 ]
    mass: 63.546000
    reduced_to: 151
  - symbol: Cu # 167
    coordinates: [  0.300000000000000,  0.600000000000000,  0.134897989910097 ]
    mass: 63.546000
    reduced_to: 151
  - symbol: Cu # 168
    coordinates: [  0.500000000000000,  0.600000000000000,  0.134897989910097 ]
    mass: 63.546000
    reduced_to: 151
  - symbol: Cu # 169
    coordinates: [  0.700000000000000,  0.600000000000000,  0.134897989910097 ]
    mass: 63.546000
    reduced_to: 151
  - symbol: Cu # 170
    coordinates: [  0.900000000000000,  0.600000000000000,  0.134897989910097 ]
    mass: 63.546000
    reduced_to: 151
  - symbol: Cu # 171
    coordinates: [  0.100000000000000,  0.800000000000000,  0.134897989910097 ]
    mass: 63.546000
    reduced_to: 151
  - symbol: Cu # 172
    coordinates: [  0.300000000000000,  0.800000000000000,  0.134897989910097 ]
    mass: 63.546000
    reduced_to: 151
  - symbol: Cu # 173
    coordinates: [  0.500000000000000,  0.800000000000000,  0.134897989910097 ]
    mass: 63.546000
    reduced_to: 151
  - symbol: Cu # 174
    coordinates: [  0.700000000000000,  0.800000000000000,  0.134897989910097 ]
    mass: 63.546000
    reduced_to: 151
  - symbol: Cu # 175
    coordinates: [  0.900000000000000,  0.800000000000000,  0.134897989910097 ]
    mass: 63.546000
    reduced_to: 151
  - symbol: Cu # 176
    coordinates: [  0.100000000000000,  0.000000000000000,  0.468231323243431 ]
    mass: 63.546000
    reduced_to: 151
  - symbol: Cu # 177
    coordinates: [  0.300000000000000,  0.000000000000000,  0.468231323243431 ]
    mass: 63.546000
    reduced_to: 151
  - symbol: Cu # 178
    coordinates: [  0.500000000000000,  0.000000000000000,  0.468231323243431 ]
    mass: 63.546000
    reduced_to: 151
  - symbol: Cu # 179
    coordinates: [  0.700000000000000,  0.000000000000000,  0.468231323243431 ]
    mass: 63.546000
    reduced_to: 151
  - symbol: Cu # 180
    coordinates: [  0.900000000000000,  0.000000000000000,  0.468231323243431 ]
    mass: 63.546000
    reduced_to: 151
  - symbol: Cu # 181
    coordinates: [  0.100000000000000,  0.200000000000000,  0.468231323243431 ]
    mass: 63.546000
    reduced_to: 151
  - symbol: Cu # 182
    coordinates: [  0.300000000000000,  0.200000000000000,  0.468231323243431 ]
    mass: 63.546000
    reduced_to: 151
  - symbol: Cu # 183
    coordinates: [  0.500000000000000,  0.200000000000000,  0.468231323243431 ]
    mass: 63.546000
    reduced_to: 151
  - symbol: Cu # 184
    coordinates: [  0.700000000000000,  0.200000000000000,  0.468231323243431 ]
    mass: 63.546000
    reduced_to: 151
  - symbol: Cu # 185
    coordinates: [  0.900000000000000,  0.200000000000000,  0.468231323243431 ]
    mass: 63.546000
    reduced_to: 151
  - symbol: Cu # 186
    coordinates: [  0.100000000000000,  0.400000000000000,  0.468231323243431 ]
    mass: 63.546000
    reduced_to: 151
  - symbol: Cu # 187
    coordinates: [  0.300000000000000,  0.400000000000000,  0.468231323243431 ]
    mass: 63.546000
    reduced_to: 151
  - symbol: Cu # 188
    coordinates: [  0.500000000000000,  0.400000000000000,  0.468231323243431 ]
    mass: 63.546000
    reduced_to: 151
  - symbol: Cu # 189