phonopy:
  version: "2.27.0"
  frequency_unit_conversion_factor: 15.633302
  symmetry_tolerance: 1.00000e-03

space_group:
  type: "R-3m"
  number: 166
  Hall_symbol: "-R 3 2\""

primitive_matrix:
- [  0.666666666666667, -0.333333333333333, -0.333333333333333 ]
- [  0.333333333333333,  0.333333333333333, -0.666666666666666 ]
- [  0.333333333333333,  0.333333333333333,  0.333333333333333 ]

supercell_matrix:
- [   5,  -3,   0 ]
- [   5,   3,   0 ]
- [   0,   0,   1 ]

primitive_cell:
  lattice:
  - [     2.196494492600829,    -1.268146686576626,    14.545411857526613 ] # a
  - [    -0.000000000000015,     2.536293373153232,    14.545411857526609 ] # b
  - [    -2.196494492600815,    -1.268146686576651,    14.545411857526615 ] # c
  points:
  - symbol: Sn # 1
    coordinates: [  0.000000000000005,  0.999999999999994,  0.000000000000003 ]
    mass: 118.710000
  - symbol: Sb # 2
    coordinates: [  0.577585825865146,  0.577585825865134,  0.577585825865140 ]
    mass: 121.760000
  - symbol: Sb # 3
    coordinates: [  0.422414174134867,  0.422414174134853,  0.422414174134863 ]
    mass: 121.760000
  - symbol: Te # 4
    coordinates: [  0.873023332073346,  0.873023332073339,  0.873023332073344 ]
    mass: 127.600000
  - symbol: Te # 5
    coordinates: [  0.126976667926663,  0.126976667926648,  0.126976667926662 ]
    mass: 127.600000
  - symbol: Te # 6
    coordinates: [  0.710331068599512,  0.710331068599497,  0.710331068599510 ]
    mass: 127.600000
  - symbol: Te # 7
    coordinates: [  0.289668931400498,  0.289668931400490,  0.289668931400496 ]
    mass: 127.600000
  reciprocal_lattice: # without 2pi
  - [     0.227635444424886,    -0.131425385115805,     0.022916733922584 ] # a*
  - [    -0.000000000000001,     0.262850770231613,     0.022916733922584 ] # b*
  - [    -0.227635444424884,    -0.131425385115808,     0.022916733922584 ] # c*

unit_cell:
  lattice:
  - [     2.196494492600845,    -3.804440059729858,     0.000000000000005 ] # a
  - [     2.196494492600801,     3.804440059729884,    -0.000000000000005 ] # b
  - [    -0.000000000000001,    -0.000000000000045,    43.636235572579849 ] # c
  points:
  - symbol: Sn # 1
    coordinates: [  0.000000000000006, -0.000000000000002,  0.000000000000001 ]
    mass: 118.710000
    reduced_to: 1
  - symbol: Sn # 2
    coordinates: [  0.666666666666672,  0.333333333333332,  0.333333333333334 ]
    mass: 118.710000
    reduced_to: 1
  - symbol: Sn # 3
    coordinates: [  0.333333333333339,  0.666666666666665,  0.666666666666667 ]
    mass: 118.710000
    reduced_to: 1
  - symbol: Sb # 4
    coordinates: [  0.333333333333339,  0.666666666666666,  0.244252492531807 ]
    mass: 121.760000
    reduced_to: 4
  - symbol: Sb # 5
    coordinates: [  0.333333333333340,  0.666666666666664,  0.089080840801528 ]
    mass: 121.760000
    reduced_to: 5
  - symbol: Sb # 6
    coordinates: [  0.000000000000006, -0.000000000000001,  0.577585825865140 ]
    mass: 121.760000
    reduced_to: 4
  - symbol: Sb # 7
    coordinates: [  0.000000000000007, -0.000000000000002,  0.422414174134861 ]
    mass: 121.760000
    reduced_to: 5
  - symbol: Sb # 8
    coordinates: [  0.666666666666671,  0.333333333333332,  0.910919159198474 ]
    mass: 121.760000
    reduced_to: 4
  - symbol: Sb # 9
    coordinates: [  0.666666666666674,  0.333333333333331,  0.755747507468195 ]
    mass: 121.760000
    reduced_to: 5
  - symbol: Te # 10
    coordinates: [  0.666666666666671,  0.333333333333333,  0.206356665406677 ]
    mass: 127.600000
    reduced_to: 10
  - symbol: Te # 11
    coordinates: [  0.000000000000007, -0.000000000000003,  0.126976667926658 ]
    mass: 127.600000
    reduced_to: 11
  - symbol: Te # 12
    coordinates: [  0.666666666666674,  0.333333333333331,  0.043664401932839 ]
    mass: 127.600000
    reduced_to: 12
  - symbol: Te # 13
    coordinates: [  0.000000000000005, -0.000000000000000,  0.289668931400495 ]
    mass: 127.600000
    reduced_to: 13
  - symbol: Te # 14
    coordinates: [  0.333333333333338,  0.666666666666667,  0.539689998740009 ]
    mass: 127.600000
    reduced_to: 10
  - symbol: Te # 15
    coordinates: [  0.666666666666674,  0.333333333333330,  0.460310001259991 ]
    mass: 127.600000
    reduced_to: 11
  - symbol: Te # 16
    coordinates: [  0.333333333333340,  0.666666666666664,  0.376997735266173 ]
    mass: 127.600000
    reduced_to: 12
  - symbol: Te # 17
    coordinates: [  0.666666666666671,  0.333333333333333,  0.623002264733828 ]
    mass: 127.600000
    reduced_to: 13
  - symbol: Te # 18
    coordinates: [  0.000000000000004, -0.000000000000000,  0.873023332073343 ]
    mass: 127.600000
    reduced_to: 10
  - symbol: Te # 19
    coordinates: [  0.333333333333341,  0.666666666666663,  0.793643334593324 ]
    mass: 127.600000
    reduced_to: 11
  - symbol: Te # 20
    coordinates: [  0.000000000000007, -0.000000000000004,  0.710331068599506 ]
    mass: 127.600000
    reduced_to: 12
  - symbol: Te # 21
    coordinates: [  0.333333333333338,  0.666666666666666,  0.956335598067161 ]
    mass: 127.600000
    reduced_to: 13

supercell:
  lattice:
  - [    21.964944926008229,     0.000000000000127,     0.000000000000001 ] # a
  - [    -0.000000000000133,    22.826640358379226,    -0.000000000000028 ] # b
  - [    -0.000000000000001,    -0.000000000000045,    43.636235572579849 ] # c
  points:
  - symbol: Sn # 1
    coordinates: [  0.000000000000000,  0.999999999999999,  0.000000000000001 ]
    mass: 118.710000
    reduced_to: 1
  - symbol: Sn # 2
    coordinates: [  0.100000000000000,  0.833333333333332,  0.000000000000001 ]
    mass: 118.710000
    reduced_to: 1
  - symbol: Sn # 3
    coordinates: [  0.200000000000000,  0.666666666666665,  0.000000000000001 ]
    mass: 118.710000
    reduced_to: 1
  - symbol: Sn # 4
    coordinates: [  0.300000000000000,  0.499999999999999,  0.000000000000001 ]
    mass: 118.710000
    reduced_to: 1
  - symbol: Sn # 5
    coordinates: [  0.400000000000000,  0.333333333333332,  0.000000000000001 ]
    mass: 118.710000
    reduced_to: 1
  - symbol: Sn # 6
    coordinates: [  0.500000000000000,  0.166666666666666,  0.000000000000001 ]
    mass: 118.710000
    reduced_to: 1
  - symbol: Sn # 7
    coordinates: [  0.600000000000000,  0.999999999999999,  0.000000000000001 ]
    mass: 118.710000
    reduced_to: 1
  - symbol: Sn # 8
    coordinates: [  0.700000000000001,  0.833333333333332,  0.000000000000001 ]
    mass: 118.710000
    reduced_to: 1
  - symbol: Sn # 9
    coordinates: [  0.100000000000000,  0.166666666666665,  0.000000000000001 ]
    mass: 118.710000
    reduced_to: 1
  - symbol: Sn # 10
    coordinates: [  0.200000000000000,  0.999999999999999,  0.000000000000001 ]
    mass: 118.710000
    reduced_to: 1
  - symbol: Sn # 11
    coordinates: [  0.300000000000000,  0.833333333333332,  0.000000000000001 ]
    mass: 118.710000
    reduced_to: 1
  - symbol: Sn # 12
    coordinates: [  0.400000000000000,  0.666666666666666,  0.000000000000001 ]
    mass: 118.710000
    reduced_to: 1
  - symbol: Sn # 13
    coordinates: [  0.500000000000000,  0.499999999999999,  0.000000000000001 ]
    mass: 118.710000
    reduced_to: 1
  - symbol: Sn # 14
    coordinates: [  0.600000000000000,  0.333333333333332,  0.000000000000001 ]
    mass: 118.710000
    reduced_to: 1
  - symbol: Sn # 15
    coordinates: [  0.700000000000000,  0.166666666666666,  0.000000000000001 ]
    mass: 118.710000
    reduced_to: 1
  - symbol: Sn # 16
    coordinates: [  0.800000000000000,  0.999999999999999,  0.000000000000001 ]
    mass: 118.710000
    reduced_to: 1
  - symbol: Sn # 17
    coordinates: [  0.200000000000000,  0.333333333333332,  0.000000000000001 ]
    mass: 118.710000
    reduced_to: 1
  - symbol: Sn # 18
    coordinates: [  0.300000000000000,  0.166666666666665,  0.000000000000001 ]
    mass: 118.710000
    reduced_to: 1
  - symbol: Sn # 19
    coordinates: [  0.400000000000000,  0.999999999999999,  0.000000000000001 ]
    mass: 118.710000
    reduced_to: 1
  - symbol: Sn # 20
    coordinates: [  0.500000000000000,  0.833333333333332,  0.000000000000001 ]
    mass: 118.710000
    reduced_to: 1
  - symbol: Sn # 21
    coordinates: [  0.600000000000000,  0.666666666666666,  0.000000000000001 ]
    mass: 118.710000
    reduced_to: 1
  - symbol: Sn # 22
    coordinates: [  0.700000000000000,  0.499999999999999,  0.000000000000001 ]
    mass: 118.710000
    reduced_to: 1
  - symbol: Sn # 23
    coordinates: [  0.800000000000000,  0.333333333333332,  0.000000000000001 ]
    mass: 118.710000
    reduced_to: 1
  - symbol: Sn # 24
    coordinates: [  0.900000000000000,  0.166666666666666,  0.000000000000001 ]
    mass: 118.710000
    reduced_to: 1
  - symbol: Sn # 25
    coordinates: [  0.800000000000000,  0.666666666666666,  0.000000000000001 ]
    mass: 118.710000
    reduced_to: 1
  - symbol: Sn # 26
    coordinates: [  0.900000000000000,  0.499999999999999,  0.000000000000001 ]
    mass: 118.710000
    reduced_to: 1
  - symbol: Sn # 27
    coordinates: [  0.000000000000000,  0.333333333333332,  0.000000000000001 ]
    mass: 118.710000
    reduced_to: 1
  - symbol: Sn # 28
    coordinates: [  0.900000000000000,  0.833333333333332,  0.000000000000001 ]
    mass: 118.710000
    reduced_to: 1
  - symbol: Sn # 29
    coordinates: [  0.000000000000000,  0.666666666666665,  0.000000000000001 ]
    mass: 118.710000
    reduced_to: 1
  - symbol: Sn # 30
    coordinates: [  0.100000000000001,  0.499999999999999,  0.000000000000001 ]
    mass: 118.710000
    reduced_to: 1
  - symbol: Sn # 31
    coordinates: [  0.100000000000000,  0.944444444444443,  0.333333333333334 ]
    mass: 118.710000
    reduced_to: 1
  - symbol: Sn # 32
    coordinates: [  0.200000000000000,  0.777777777777777,  0.333333333333334 ]
    mass: 118.710000
    reduced_to: 1
  - symbol: Sn # 33
    coordinates: [  0.300000000000000,  0.611111111111110,  0.333333333333334 ]
    mass: 118.710000
    reduced_to: 1
  - symbol: Sn # 34
    coordinates: [  0.400000000000000,  0.444444444444443,  0.333333333333334 ]
    mass: 118.710000
    reduced_to: 1
  - symbol: Sn # 35
    coordinates: [  0.500000000000000,  0.277777777777777,  0.333333333333334 ]
    mass: 118.710000
    reduced_to: 1
  - symbol: Sn # 36
    coordinates: [  0.600000000000000,  0.111111111111110,  0.333333333333334 ]
    mass: 118.710000
    reduced_to: 1
  - symbol: Sn # 37
    coordinates: [  0.700000000000001,  0.944444444444443,  0.333333333333334 ]
    mass: 118.710000
    reduced_to: 1
  - symbol: Sn # 38
    coordinates: [  0.800000000000000,  0.777777777777777,  0.333333333333334 ]
    mass: 118.710000
    reduced_to: 1
  - symbol: Sn # 39
    coordinates: [  0.200000000000000,  0.111111111111110,  0.333333333333334 ]
    mass: 118.710000
    reduced_to: 1
  - symbol: Sn # 40
    coordinates: [  0.300000000000000,  0.944444444444443,  0.333333333333334 ]
    mass: 118.710000
    reduced_to: 1
  - symbol: Sn # 41
    coordinates: [  0.400000000000000,  0.777777777777777,  0.333333333333334 ]
    mass: 118.710000
    reduced_to: 1
  - symbol: Sn # 42
    coordinates: [  0.500000000000000,  0.611111111111110,  0.333333333333334 ]
    mass: 118.710000
    reduced_to: 1
  - symbol: Sn # 43
    coordinates: [  0.600000000000000,  0.444444444444443,  0.333333333333334 ]
    mass: 118.710000
    reduced_to: 1
  - symbol: Sn # 44
    coordinates: [  0.700000000000000,  0.277777777777777,  0.333333333333334 ]
    mass: 118.710000
    reduced_to: 1
  - symbol: Sn # 45
    coordinates: [  0.800000000000000,  0.111111111111110,  0.333333333333334 ]
    mass: 118.710000
    reduced_to: 1
  - symbol: Sn # 46
    coordinates: [  0.900000000000000,  0.944444444444443,  0.333333333333334 ]
    mass: 118.710000
    reduced_to: 1
  - symbol: Sn # 47
    coordinates: [  0.300000000000000,  0.277777777777777,  0.333333333333334 ]
    mass: 118.710000
    reduced_to: 1
  - symbol: Sn # 48
    coordinates: [  0.400000000000000,  0.111111111111110,  0.333333333333334 ]
    mass: 118.710000
    reduced_to: 1
  - symbol: Sn # 49
    coordinates: [  0.500000000000000,  0.944444444444443,  0.333333333333334 ]
    mass: 118.710000
    reduced_to: 1
  - symbol: Sn # 50
    coordinates: [  0.600000000000000,  0.777777777777777,  0.333333333333334 ]
    mass: 118.710000
    reduced_to: 1
  - symbol: Sn # 51
    coordinates: [  0.700000000000000,  0.611111111111110,  0.333333333333334 ]
    mass: 118.710000
    reduced_to: 1
  - symbol: Sn # 52
    coordinates: [  0.800000000000000,  0.444444444444443,  0.333333333333334 ]
    mass: 118.710000
    reduced_to: 1
  - symbol: Sn # 53
    coordinates: [  0.900000000000000,  0.277777777777777,  0.333333333333334 ]
    mass: 118.710000
    reduced_to: 1
  - symbol: Sn # 54
    coordinates: [  0.000000000000000,  0.111111111111110,  0.333333333333334 ]
    mass: 118.710000
    reduced_to: 1
  - symbol: Sn # 55
    coordinates: [  0.900000000000000,  0.611111111111110,  0.333333333333334 ]
    mass: 118.710000
    reduced_to: 1
  - symbol: Sn # 56
    coordinates: [  0.000000000000000,  0.444444444444443,  0.333333333333334 ]
    mass: 118.710000
    reduced_to: 1
  - symbol: Sn # 57
    coordinates: [  0.100000000000001,  0.277777777777777,  0.333333333333334 ]
    mass: 118.710000
    reduced_to: 1
  - symbol: Sn # 58
    coordinates: [  0.000000000000000,  0.777777777777777,  0.333333333333334 ]
    mass: 118.710000
    reduced_to: 1
  - symbol: Sn # 59
    coordinates: [  0.100000000000001,  0.611111111111110,  0.333333333333334 ]
    mass: 118.710000
    reduced_to: 1
  - symbol: Sn # 60
    coordinates: [  0.200000000000001,  0.444444444444443,  0.333333333333334 ]
    mass: 118.710000
    reduced_to: 1
  - symbol: Sn # 61
    coordinates: [  0.100000000000000,  0.055555555555554,  0.666666666666667 ]
    mass: 118.710000
    reduced_to: 1
  - symbol: Sn # 62
    coordinates: [  0.200000000000000,  0.888888888888888,  0.666666666666667 ]
    mass: 118.710000
    reduced_to: 1
  - symbol: Sn # 63
    coordinates: [  0.300000000000000,  0.722222222222221,  0.666666666666667 ]
    mass: 118.710000
    reduced_to: 1
  - symbol: Sn # 64
    coordinates: [  0.400000000000000,  0.555555555555554,  0.666666666666667 ]
    mass: 118.710000
    reduced_to: 1
  - symbol: Sn # 65
    coordinates: [  0.500000000000000,  0.388888888888888,  0.666666666666667 ]
    mass: 118.710000
    reduced_to: 1
  - symbol: Sn # 66
    coordinates: [  0.600000000000001,  0.222222222222221,  0.666666666666667 ]
    mass: 118.710000
    reduced_to: 1
  - symbol: Sn # 67
    coordinates: [  0.700000000000001,  0.055555555555554,  0.666666666666667 ]
    mass: 118.710000
    reduced_to: 1
  - symbol: Sn # 68
    coordinates: [  0.800000000000000,  0.888888888888888,  0.666666666666667 ]
    mass: 118.710000
    reduced_to: 1
  - symbol: Sn # 69
    coordinates: [  0.200000000000000,  0.222222222222221,  0.666666666666667 ]
    mass: 118.710000
    reduced_to: 1
  - symbol: Sn # 70
    coordinates: [  0.300000000000000,  0.055555555555554,  0.666666666666667 ]
    mass: 118.710000
    reduced_to: 1
  - symbol: Sn # 71
    coordinates: [  0.400000000000000,  0.888888888888888,  0.666666666666667 ]
    mass: 118.710000
    reduced_to: 1
  - symbol: Sn # 72
    coordinates: [  0.500000000000000,  0.722222222222221,  0.666666666666667 ]
    mass: 118.710000
    reduced_to: 1
  - symbol: Sn # 73
    coordinates: [  0.600000000000001,  0.555555555555554,  0.666666666666667 ]
    mass: 118.710000
    reduced_to: 1
  - symbol: Sn # 74
    coordinates: [  0.700000000000001,  0.388888888888888,  0.666666666666667 ]
    mass: 118.710000
    reduced_to: 1
  - symbol: Sn # 75
    coordinates: [  0.800000000000000,  0.222222222222221,  0.666666666666667 ]
    mass: 118.710000
    reduced_to: 1
  - symbol: Sn # 76
    coordinates: [  0.900000000000000,  0.055555555555554,  0.666666666666667 ]
    mass: 118.710000
    reduced_to: 1
  - symbol: Sn # 77
    coordinates: [  0.300000000000000,  0.388888888888888,  0.666666666666667 ]
    mass: 118.710000
    reduced_to: 1
  - symbol: Sn # 78
    coordinates: [  0.400000000000000,  0.222222222222221,  0.666666666666667 ]
    mass: 118.710000
    reduced_to: 1
  - symbol: Sn # 79
    coordinates: [  0.500000000000000,  0.055555555555554,  0.666666666666667 ]
    mass: 118.710000
    reduced_to: 1
  - symbol: Sn # 80
    coordinates: [  0.600000000000000,  0.888888888888888,  0.666666666666667 ]
    mass: 118.710000
    reduced_to: 1
  - symbol: Sn # 81
    coordinates: [  0.700000000000001,  0.722222222222221,  0.666666666666667 ]
    mass: 118.710000
    reduced_to: 1
  - symbol: Sn # 82
    coordinates: [  0.800000000000000,  0.555555555555554,  0.666666666666667 ]
    mass: 118.710000
    reduced_to: 1
  - symbol: Sn # 83
    coordinates: [  0.900000000000000,  0.388888888888888,  0.666666666666667 ]
    mass: 118.710000
    reduced_to: 1
  - symbol: Sn # 84
    coordinates: [  0.000000000000000,  0.222222222222221,  0.666666666666667 ]
    mass: 118.710000
    reduced_to: 1
  - symbol: Sn # 85
    coordinates: [  0.900000000000001,  0.722222222222221,  0.666666666666667 ]
    mass: 118.710000
    reduced_to: 1
  - symbol: Sn # 86
    coordinates: [  0.000000000000000,  0.555555555555554,  0.666666666666667 ]
    mass: 118.710000
    reduced_to: 1
  - symbol: Sn # 87
    coordinates: [  0.100000000000001,  0.388888888888888,  0.666666666666667 ]
    mass: 118.710000
    reduced_to: 1
  - symbol: Sn # 88
    coordinates: [  0.000000000000000,  0.888888888888888,  0.666666666666667 ]
    mass: 118.710000
    reduced_to: 1
  - symbol: Sn # 89
    coordinates: [  0.100000000000001,  0.722222222222221,  0.666666666666667 ]
    mass: 118.710000
    reduced_to: 1
  - symbol: Sn # 90
    coordinates: [  0.200000000000000,  0.555555555555554,  0.666666666666667 ]
    mass: 118.710000
    reduced_to: 1
  - symbol: Sb # 91
    coordinates: [  0.100000000000001,  0.055555555555555,  0.244252492531807 ]
    mass: 121.760000
    reduced_to: 91
  - symbol: Sb # 92
    coordinates: [  0.200000000000001,  0.888888888888888,  0.244252492531807 ]
    mass: 121.760000
    reduced_to: 91
  - symbol: Sb # 93
    coordinates: [  0.300000000000001,  0.722222222222221,  0.244252492531807 ]
    mass: 121.760000
    reduced_to: 91
  - symbol: Sb # 94
    coordinates: [  0.400000000000001,  0.555555555555555,  0.244252492531807 ]
    mass: 121.760000
    reduced_to: 91
  - symbol: Sb # 95
    coordinates: [  0.500000000000001,  0.388888888888888,  0.244252492531807 ]
    mass: 121.760000
    reduced_to: 91
  - symbol: Sb # 96
    coordinates: [  0.600000000000001,  0.222222222222221,  0.244252492531807 ]
    mass: 121.760000
    reduced_to: 91
  - symbol: Sb # 97
    coordinates: [  0.700000000000001,  0.055555555555555,  0.244252492531807 ]
    mass: 121.760000
    reduced_to: 91
  - symbol: Sb # 98
    coordinates: [  0.800000000000001,  0.888888888888888,  0.244252492531807 ]
    mass: 121.760000
    reduced_to: 91
  - symbol: Sb # 99
    coordinates: [  0.200000000000001,  0.222222222222221,  0.244252492531807 ]
    mass: 121.760000
    reduced_to: 91
  - symbol: Sb # 100
    coordinates: [  0.300000000000001,  0.055555555555555,  0.244252492531807 ]
    mass: 121.760000
    reduced_to: 91
  - symbol: Sb # 101
    coordinates: [  0.400000000000001,  0.888888888888888,  0.244252492531807 ]
    mass: 121.760000
    reduced_to: 91
  - symbol: Sb # 102
    coordinates: [  0.500000000000001,  0.722222222222221,  0.244252492531807 ]
    mass: 121.760000
    reduced_to: 91
  - symbol: Sb # 103
    coordinates: [  0.600000000000001,  0.555555555555554,  0.244252492531807 ]
    mass: 121.760000
    reduced_to: 91
  - symbol: Sb # 104
    coordinates: [  0.700000000000001,  0.388888888888888,  0.244252492531807 ]
    mass: 121.760000
    reduced_to: 91
  - symbol: Sb # 105
    coordinates: [  0.800000000000001,  0.222222222222221,  0.244252492531807 ]
    mass: 121.760000
    reduced_to: 91
  - symbol: Sb # 106
    coordinates: [  0.900000000000001,  0.055555555555554,  0.244252492531807 ]
    mass: 121.760000
    reduced_to: 91
  - symbol: Sb # 107
    coordinates: [  0.300000000000001,  0.388888888888888,  0.244252492531807 ]
    mass: 121.760000
    reduced_to: 91
  - symbol: Sb # 108
    coordinates: [  0.400000000000001,  0.222222222222221,  0.244252492531807 ]
    mass: 121.760000
    reduced_to: 91
  - symbol: Sb # 109
    coordinates: [  0.500000000000001,  0.055555555555555,  0.244252492531807 ]
    mass: 121.760000
    reduced_to: 91
  - symbol: Sb # 110
    coordinates: [  0.600000000000001,  0.888888888888888,  0.244252492531807 ]
    mass: 121.760000
    reduced_to: 91
  - symbol: Sb # 111
    coordinates: [  0.700000000000001,  0.722222222222221,  0.244252492531807 ]
    mass: 121.760000
    reduced_to: 91
  - symbol: Sb # 112
    coordinates: [  0.800000000000001,  0.555555555555554,  0.244252492531807 ]
    mass: 121.760000
    reduced_to: 91
  - symbol: Sb # 113
    coordinates: [  0.900000000000001,  0.388888888888888,  0.244252492531807 ]
    mass: 121.760000
    reduced_to: 91
  - symbol: Sb # 114
    coordinates: [  0.000000000000001,  0.222222222222221,  0.244252492531807 ]
    mass: 121.760000
    reduced_to: 91
  - symbol: Sb # 115
    coordinates: [  0.900000000000001,  0.722222222222221,  0.244252492531807 ]
    mass: 121.760000
    reduced_to: 91
  - symbol: Sb # 116
    coordinates: [  0.000000000000001,  0.555555555555554,  0.244252492531807 ]
    mass: 121.760000
    reduced_to: 91
  - symbol: Sb # 117
    coordinates: [  0.100000000000001,  0.388888888888888,  0.244252492531807 ]
    mass: 121.760000
    reduced_to: 91
  - symbol: Sb # 118
    coordinates: [  0.000000000000001,  0.888888888888888,  0.244252492531807 ]
    mass: 121.760000
    reduced_to: 91
  - symbol: Sb # 119
    coordinates: [  0.100000000000001,  0.722222222222221,  0.244252492531807 ]
    mass: 121.760000
    reduced_to: 91
  - symbol: Sb # 120
    coordinates: [  0.200000000000001,  0.555555555555554,  0.244252492531807 ]
    mass: 121.760000
    reduced_to: 91
  - symbol: Sb # 121
    coordinates: [  0.100000000000000,  0.055555555555554,  0.089080840801528 ]
    mass: 121.760000
    reduced_to: 121
  - symbol: Sb # 122
    coordinates: [  0.200000000000000,  0.888888888888888,  0.089080840801528 ]
    mass: 121.760000
    reduced_to: 121
  - symbol: Sb # 123
    coordinates: [  0.300000000000000,  0.722222222222221,  0.089080840801528 ]
    mass: 121.760000
    reduced_to: 121
  - symbol: Sb # 124
    coordinates: [  0.400000000000000,  0.555555555555554,  0.089080840801528 ]
    mass: 121.760000
    reduced_to: 121
  - symbol: Sb # 125
    coordinates: [  0.500000000000000,  0.388888888888888,  0.089080840801528 ]
    mass: 121.760000
    reduced_to: 121
  - symbol: Sb # 126
    coordinates: [  0.600000000000000,  0.222222222222221,  0.089080840801528 ]
    mass: 121.760000
    reduced_to: 121
  - symbol: Sb # 127
    coordinates: [  0.700000000000000,  0.055555555555554,  0.089080840801528 ]
    mass: 121.760000
    reduced_to: 121
  - symbol: Sb # 128
    coordinates: [  0.800000000000000,  0.888888888888888,  0.089080840801528 ]
    mass: 121.760000
    reduced_to: 121
  - symbol: Sb # 129
    coordinates: [  0.200000000000000,  0.222222222222221,  0.089080840801528 ]
    mass: 121.760000
    reduced_to: 121
  - symbol: Sb # 130
    coordinates: [  0.300000000000000,  0.055555555555554,  0.089080840801528 ]
    mass: 121.760000
    reduced_to: 121
  - symbol: Sb # 131
    coordinates: [  0.400000000000000,  0.888888888888887,  0.089080840801528 ]
    mass: 121.760000
    reduced_to: 121
  - symbol: Sb # 132
    coordinates: [  0.500000000000000,  0.722222222222221,  0.089080840801528 ]
    mass: 121.760000
    reduced_to: 121
  - symbol: Sb # 133
    coordinates: [  0.600000000000000,  0.555555555555554,  0.089080840801528 ]
    mass: 121.760000
    reduced_to: 121
  - symbol: Sb # 134
    coordinates: [  0.700000000000000,  0.388888888888888,  0.089080840801528 ]
    mass: 121.760000
    reduced_to: 121
  - symbol: Sb # 135
    coordinates: [  0.800000000000000,  0.222222222222221,  0.089080840801528 ]
    mass: 121.760000
    reduced_to: 121
  - symbol: Sb # 136
    coordinates: [  0.900000000000000,  0.055555555555554,  0.089080840801528 ]
    mass: 121.760000
    reduced_to: 121
  - symbol: Sb # 137
    coordinates: [  0.300000000000000,  0.388888888888887,  0.089080840801528 ]
    mass: 121.760000
    reduced_to: 121
  - symbol: Sb # 138
    coordinates: [  0.400000000000000,  0.222222222222221,  0.089080840801528 ]
    mass: 121.760000
    reduced_to: 121
  - symbol: Sb # 139
    coordinates: [  0.500000000000000,  0.055555555555554,  0.089080840801528 ]
    mass: 121.760000
    reduced_to: 121
  - symbol: Sb # 140
    coordinates: [  0.600000000000000,  0.888888888888888,  0.089080840801528 ]
    mass: 121.760000
    reduced_to: 121
  - symbol: Sb # 141
    coordinates: [  0.700000000000000,  0.722222222222221,  0.089080840801528 ]
    mass: 121.760000
    reduced_to: 121
  - symbol: Sb # 142
    coordinates: [  0.800000000000000,  0.555555555555554,  0.089080840801528 ]
    mass: 121.760000
    reduced_to: 121
  - symbol: Sb # 143
    coordinates: [  0.900000000000000,  0.388888888888888,  0.089080840801528 ]
    mass: 121.760000
    reduced_to: 121
  - symbol: Sb # 144
    coordinates: [  0.000000000000000,  0.222222222222221,  0.089080840801528 ]
    mass: 121.760000
    reduced_to: 121
  - symbol: Sb # 145
    coordinates: [  0.900000000000000,  0.722222222222221,  0.089080840801528 ]
    mass: 121.760000
    reduced_to: 121
  - symbol: Sb # 146
    coordinates: [  0.000000000000000,  0.555555555555554,  0.089080840801528 ]
    mass: 121.760000
    reduced_to: 121
  - symbol: Sb # 147
    coordinates: [  0.100000000000000,  0.388888888888888,  0.089080840801528 ]
    mass: 121.760000
    reduced_to: 121
  - symbol: Sb # 148
    coordinates: [  0.000000000000000,  0.888888888888888,  0.089080840801528 ]
    mass: 121.760000
    reduced_to: 121
  - symbol: Sb # 149
    coordinates: [  0.100000000000001,  0.722222222222221,  0.089080840801528 ]
    mass: 121.760000
    reduced_to: 121
  - symbol: Sb # 150
    coordinates: [  0.200000000000000,  0.555555555555554,  0.089080840801528 ]
    mass: 121.760000
    reduced_to: 121
  - symbol: Sb # 151
    coordinates: [  0.000000000000000,  0.999999999999999,  0.577585825865140 ]
    mass: 121.760000
    reduced_to: 91
  - symbol: Sb # 152
    coordinates: [  0.100000000000000,  0.833333333333332,  0.577585825865140 ]
    mass: 121.760000
    reduced_to: 91
  - symbol: Sb # 153
    coordinates: [  0.200000000000000,  0.666666666666666,  0.577585825865140 ]
    mass: 121.760000
    reduced_to: 91
  - symbol: Sb # 154
    coordinates: [  0.300000000000000,  0.499999999999999,  0.577585825865140 ]
    mass: 121.760000
    reduced_to: 91
  - symbol: Sb # 155
    coordinates: [  0.400000000000000,  0.333333333333332,  0.577585825865140 ]
    mass: 121.760000
    reduced_to: 91
  - symbol: Sb # 156
    coordinates: [  0.500000000000000,  0.166666666666666,  0.577585825865140 ]
    mass: 121.760000
    reduced_to: 91
  - symbol: Sb # 157
    coordinates: [  0.600000000000000,  0.999999999999999,  0.577585825865140 ]
    mass: 121.760000
    reduced_to: 91
  - symbol: Sb # 158
    coordinates: [  0.700000000000001,  0.833333333333332,  0.577585825865140 ]
    mass: 121.760000
    reduced_to: 91
  - symbol: Sb # 159
    coordinates: [  0.100000000000000,  0.166666666666666,  0.577585825865140 ]
    mass: 121.760000
    reduced_to: 91
  - symbol: Sb # 160
    coordinates: [  0.200000000000000,  0.999999999999999,  0.577585825865140 ]
    mass: 121.760000
    reduced_to: 91
  - symbol: Sb # 161
    coordinates: [  0.300000000000000,  0.833333333333332,  0.577585825865140 ]
    mass: 121.760000
    reduced_to: 91
  - symbol: Sb # 162
    coordinates: [  0.400000000000000,  0.666666666666666,  0.577585825865140 ]
    mass: 121.760000
    reduced_to: 91
  - symbol: Sb # 163
    coordinates: [  0.500000000000000,  0.499999999999999,  0.577585825865140 ]
    mass: 121.760000
    reduced_to: 91
  - symbol: Sb # 164
    coordinates: [  0.600000000000000,  0.333333333333332,  0.577585825865140 ]
    mass: 121.760000
    reduced_to: 91
  - symbol: Sb # 165
    coordinates: [  0.700000000000000,  0.166666666666666,  0.577585825865140 ]
    mass: 121.760000
    reduced_to: 91
  - symbol: Sb # 166
    coordinates: [  0.800000000000000,  0.999999999999999,  0.577585825865140 ]
    mass: 121.760000
    reduced_to: 91
  - symbol: Sb # 167
    coordinates: [  0.200000000000000,  0.333333333333332,  0.577585825865140 ]
    mass: 121.760000
    reduced_to: 91
  - symbol: Sb # 168
    coordinates: [  0.300000000000000,  0.166666666666666,  0.577585825865140 ]
    mass: 121.760000
    reduced_to: 91
  - symbol: Sb # 169
    coordinates: [  0.400000000000000,  0.999999999999999,  0.577585825865140 ]
    mass: 121.760000
    reduced_to: 91
  - symbol: Sb # 170
    coordinates: [  0.500000000000000,  0.833333333333332,  0.577585825865140 ]
    mass: 121.760000
    reduced_to: 91
  - symbol: Sb # 171
    coordinates: [  0.600000000000000,  0.666666666666666,  0.577585825865140 ]
    mass: 121.760000
    reduced_to: 91
  - symbol: Sb # 172
    coordinates: [  0.700000000000000,  0.499999999999999,  0.577585825865140 ]
    mass: 121.760000
    reduced_to: 91
  - symbol: Sb # 173
    coordinates: [  0.800000000000000,  0.333333333333332,  0.577585825865140 ]
    mass: 121.760000
    reduced_to: 91
  - symbol: Sb # 174
    coordinates: [  0.900000000000000,  0.166666666666666,  0.577585825865140 ]
    mass: 121.760000
    reduced_to: 91
  - symbol: Sb # 175
    coordinates: [  0.800000000000000,  0.666666666666666,  0.577585825865140 ]
    mass: 121.760000
    reduced_to: 91
  - symbol: Sb # 176
    coordinates: [  0.900000000000000,  0.499999999999999,  0.577585825865140 ]
    mass: 121.760000
    reduced_to: 91