phonopy:
  version: "2.27.0"
  frequency_unit_conversion_factor: 15.633302
  symmetry_tolerance: 1.00000e-03

space_group:
  type: "P4_1"
  number: 76
  Hall_symbol: "P 4w"

primitive_matrix:
- [  1.000000000000000,  0.000000000000000,  0.000000000000000 ]
- [ -0.000000000000000,  1.000000000000000,  0.000000000000000 ]
- [  0.000000000000000, -0.000000000000000,  1.000000000000000 ]

supercell_matrix:
- [   3,   0,   0 ]
- [   0,   3,   0 ]
- [   0,   0,   2 ]

primitive_cell:
  lattice:
  - [     8.936839189593195,    -0.000000000000584,    -0.000000004398940 ] # a
  - [    -0.000000000000619,     8.936839189575794,    -0.000000003873109 ] # b
  - [    -0.000000007548449,    -0.000000006546966,    16.157515598119698 ] # c
  points:
  - symbol: Tl # 1
    coordinates: [  0.986325743049742,  0.803895121066461,  0.806844442356446 ]
    mass: 204.383300
  - symbol: Tl # 2
    coordinates: [  0.877881798240358,  0.670952328679548,  0.376552622910502 ]
    mass: 204.383300
  - symbol: Tl # 3
    coordinates: [  0.196104877386013,  0.986325742926362,  0.056844442032035 ]
    mass: 204.383300
  - symbol: Tl # 4
    coordinates: [  0.188210014874199,  0.383087110490023,  0.571502450157766 ]
    mass: 204.383300
  - symbol: Tl # 5
    coordinates: [  0.670952328919397,  0.122118201716700,  0.126552623262613 ]
    mass: 204.383300
  - symbol: Tl # 6
    coordinates: [  0.383087109965568,  0.811789985433523,  0.321502450255929 ]
    mass: 204.383300
  - symbol: Tl # 7
    coordinates: [  0.122118201875738,  0.329047670999081,  0.876552623536684 ]
    mass: 204.383300
  - symbol: Tl # 8
    coordinates: [  0.013674257683043,  0.196104876099594,  0.306844441892426 ]
    mass: 204.383300
  - symbol: Tl # 9
    coordinates: [  0.616912890278878,  0.188210014064860,  0.821502450258254 ]
    mass: 204.383300
  - symbol: Tl # 10
    coordinates: [  0.811789986243919,  0.616912890806345,  0.071502450356769 ]
    mass: 204.383300
  - symbol: Tl # 11
    coordinates: [  0.329047671239456,  0.877881798079431,  0.626552623184083 ]
    mass: 204.383300
  - symbol: Tl # 12
    coordinates: [  0.803895122351189,  0.013674257557659,  0.556844442216419 ]
    mass: 204.383300
  - symbol: Pb # 13
    coordinates: [  0.720772376463332,  0.490355482338880,  0.631611529575306 ]
    mass: 207.200000
  - symbol: Pb # 14
    coordinates: [  0.509644517482541,  0.720772376244798,  0.881611529871451 ]
    mass: 207.200000
  - symbol: Pb # 15
    coordinates: [  0.490355482461543,  0.279227624425592,  0.381611529831247 ]
    mass: 207.200000
  - symbol: Pb # 16
    coordinates: [  0.279227624643097,  0.509644517360939,  0.131611530126391 ]
    mass: 207.200000
  - symbol: Br # 17
    coordinates: [  0.347894040486026,  0.530977764202239,  0.761529674326427 ]
    mass: 79.904000
  - symbol: Br # 18
    coordinates: [  0.485081949797269,  0.785821860341042,  0.109550449540569 ]
    mass: 79.904000
  - symbol: Br # 19
    coordinates: [  0.214178139241120,  0.485081949338570,  0.359550449418350 ]
    mass: 79.904000
  - symbol: Br # 20
    coordinates: [  0.688925462696215,  0.010110812588785,  0.350337154181017 ]
    mass: 79.904000
  - symbol: Br # 21
    coordinates: [  0.647043752212334,  0.837495374282609,  0.727462095507056 ]
    mass: 79.904000
  - symbol: Br # 22
    coordinates: [  0.514918050524044,  0.214178140047325,  0.609550450222597 ]
    mass: 79.904000
  - symbol: Br # 23
    coordinates: [  0.652105957664308,  0.469022236344488,  0.261529673850131 ]
    mass: 79.904000
  - symbol: Br # 24
    coordinates: [  0.469022235395667,  0.347894040611046,  0.011529674182587 ]
    mass: 79.904000
  - symbol: Br # 25
    coordinates: [  0.010110812648392,  0.311074537425340,  0.100337154305110 ]
    mass: 79.904000
  - symbol: Br # 26
    coordinates: [  0.949747370612474,  0.221624639942486,  0.701610570966898 ]
    mass: 79.904000
  - symbol: Br # 27
    coordinates: [  0.785821859534400,  0.514918050064693,  0.859550450346277 ]
    mass: 79.904000
  - symbol: Br # 28
    coordinates: [  0.778375362077578,  0.949747370736601,  0.951610571167444 ]
    mass: 79.904000
  - symbol: Br # 29
    coordinates: [  0.221624639229181,  0.050252629532715,  0.451610571171429 ]
    mass: 79.904000
  - symbol: Br # 30
    coordinates: [  0.162504625158167,  0.647043751978383,  0.977462095701627 ]
    mass: 79.904000
  - symbol: Br # 31
    coordinates: [  0.311074536811780,  0.989889187423295,  0.850337153693378 ]
    mass: 79.904000
  - symbol: Br # 32
    coordinates: [  0.837495374424873,  0.352956247942863,  0.477462095232143 ]
    mass: 79.904000
  - symbol: Br # 33
    coordinates: [  0.989889187483267,  0.688925463308730,  0.600337153570409 ]
    mass: 79.904000
  - symbol: Br # 34
    coordinates: [  0.530977763256938,  0.652105957789446,  0.511529673993829 ]
    mass: 79.904000
  - symbol: Br # 35
    coordinates: [  0.352956248177227,  0.162504625017381,  0.227462095426055 ]
    mass: 79.904000
  - symbol: Br # 36
    coordinates: [  0.050252629410810,  0.778375362792293,  0.201610571372277 ]
    mass: 79.904000
  reciprocal_lattice: # without 2pi
  - [     0.111896385151977,     0.000000000000008,     0.000000000052276 ] # a*
  - [     0.000000000000007,     0.111896385152195,     0.000000000045340 ] # b*
  - [     0.000000000030464,     0.000000000026823,     0.061890703055634 ] # c*

unit_cell:
  lattice:
  - [     8.936839189593195,    -0.000000000000584,    -0.000000004398940 ] # a
  - [    -0.000000000000619,     8.936839189575792,    -0.000000003873109 ] # b
  - [    -0.000000007548449,    -0.000000006546966,    16.157515598119698 ] # c
  points:
  - symbol: Tl # 1
    coordinates: [  0.986325743049742,  0.803895121066461,  0.806844442356446 ]
    mass: 204.383300
    reduced_to: 1
  - symbol: Tl # 2
    coordinates: [  0.877881798240358,  0.670952328679548,  0.376552622910502 ]
    mass: 204.383300
    reduced_to: 2
  - symbol: Tl # 3
    coordinates: [  0.196104877386013,  0.986325742926362,  0.056844442032035 ]
    mass: 204.383300
    reduced_to: 3
  - symbol: Tl # 4
    coordinates: [  0.188210014874199,  0.383087110490023,  0.571502450157766 ]
    mass: 204.383300
    reduced_to: 4
  - symbol: Tl # 5
    coordinates: [  0.670952328919397,  0.122118201716700,  0.126552623262613 ]
    mass: 204.383300
    reduced_to: 5
  - symbol: Tl # 6
    coordinates: [  0.383087109965568,  0.811789985433523,  0.321502450255929 ]
    mass: 204.383300
    reduced_to: 6
  - symbol: Tl # 7
    coordinates: [  0.122118201875738,  0.329047670999081,  0.876552623536684 ]
    mass: 204.383300
    reduced_to: 7
  - symbol: Tl # 8
    coordinates: [  0.013674257683043,  0.196104876099594,  0.306844441892426 ]
    mass: 204.383300
    reduced_to: 8
  - symbol: Tl # 9
    coordinates: [  0.616912890278878,  0.188210014064861,  0.821502450258254 ]
    mass: 204.383300
    reduced_to: 9
  - symbol: Tl # 10
    coordinates: [  0.811789986243919,  0.616912890806345,  0.071502450356769 ]
    mass: 204.383300
    reduced_to: 10
  - symbol: Tl # 11
    coordinates: [  0.329047671239456,  0.877881798079431,  0.626552623184083 ]
    mass: 204.383300
    reduced_to: 11
  - symbol: Tl # 12
    coordinates: [  0.803895122351189,  0.013674257557659,  0.556844442216419 ]
    mass: 204.383300
    reduced_to: 12
  - symbol: Pb # 13
    coordinates: [  0.720772376463332,  0.490355482338880,  0.631611529575306 ]
    mass: 207.200000
    reduced_to: 13
  - symbol: Pb # 14
    coordinates: [  0.509644517482541,  0.720772376244798,  0.881611529871451 ]
    mass: 207.200000
    reduced_to: 14
  - symbol: Pb # 15
    coordinates: [  0.490355482461543,  0.279227624425592,  0.381611529831247 ]
    mass: 207.200000
    reduced_to: 15
  - symbol: Pb # 16
    coordinates: [  0.279227624643097,  0.509644517360939,  0.131611530126391 ]
    mass: 207.200000
    reduced_to: 16
  - symbol: Br # 17
    coordinates: [  0.347894040486026,  0.530977764202239,  0.761529674326427 ]
    mass: 79.904000
    reduced_to: 17
  - symbol: Br # 18
    coordinates: [  0.485081949797269,  0.785821860341043,  0.109550449540569 ]
    mass: 79.904000
    reduced_to: 18
  - symbol: Br # 19
    coordinates: [  0.214178139241120,  0.485081949338570,  0.359550449418350 ]
    mass: 79.904000
    reduced_to: 19
  - symbol: Br # 20
    coordinates: [  0.688925462696215,  0.010110812588785,  0.350337154181017 ]
    mass: 79.904000
    reduced_to: 20
  - symbol: Br # 21
    coordinates: [  0.647043752212334,  0.837495374282609,  0.727462095507056 ]
    mass: 79.904000
    reduced_to: 21
  - symbol: Br # 22
    coordinates: [  0.514918050524044,  0.214178140047325,  0.609550450222597 ]
    mass: 79.904000
    reduced_to: 22
  - symbol: Br # 23
    coordinates: [  0.652105957664308,  0.469022236344488,  0.261529673850131 ]
    mass: 79.904000
    reduced_to: 23
  - symbol: Br # 24
    coordinates: [  0.469022235395667,  0.347894040611046,  0.011529674182587 ]
    mass: 79.904000
    reduced_to: 24
  - symbol: Br # 25
    coordinates: [  0.010110812648392,  0.311074537425340,  0.100337154305110 ]
    mass: 79.904000
    reduced_to: 25
  - symbol: Br # 26
    coordinates: [  0.949747370612474,  0.221624639942486,  0.701610570966898 ]
    mass: 79.904000
    reduced_to: 26
  - symbol: Br # 27
    coordinates: [  0.785821859534400,  0.514918050064693,  0.859550450346277 ]
    mass: 79.904000
    reduced_to: 27
  - symbol: Br # 28
    coordinates: [  0.778375362077578,  0.949747370736601,  0.951610571167444 ]
    mass: 79.904000
    reduced_to: 28
  - symbol: Br # 29
    coordinates: [  0.221624639229181,  0.050252629532715,  0.451610571171429 ]
    mass: 79.904000
    reduced_to: 29
  - symbol: Br # 30
    coordinates: [  0.162504625158167,  0.647043751978384,  0.977462095701627 ]
    mass: 79.904000
    reduced_to: 30
  - symbol: Br # 31
    coordinates: [  0.311074536811780,  0.989889187423295,  0.850337153693378 ]
    mass: 79.904000
    reduced_to: 31
  - symbol: Br # 32
    coordinates: [  0.837495374424873,  0.352956247942863,  0.477462095232143 ]
    mass: 79.904000
    reduced_to: 32
  - symbol: Br # 33
    coordinates: [  0.989889187483267,  0.688925463308731,  0.600337153570409 ]
    mass: 79.904000
    reduced_to: 33
  - symbol: Br # 34
    coordinates: [  0.530977763256938,  0.652105957789446,  0.511529673993829 ]
    mass: 79.904000
    reduced_to: 34
  - symbol: Br # 35
    coordinates: [  0.352956248177227,  0.162504625017381,  0.227462095426055 ]
    mass: 79.904000
    reduced_to: 35
  - symbol: Br # 36
    coordinates: [  0.050252629410810,  0.778375362792293,  0.201610571372277 ]
    mass: 79.904000
    reduced_to: 36

supercell:
  lattice:
  - [    26.810517568779588,    -0.000000000001752,    -0.000000013196819 ] # a
  - [    -0.000000000001858,    26.810517568727377,    -0.000000011619328 ] # b
  - [    -0.000000015096898,    -0.000000013093931,    32.315031196239396 ] # c
  points:
  - symbol: Tl # 1
    coordinates: [  0.328775247683247,  0.267965040355487,  0.403422221178223 ]
    mass: 204.383300
    reduced_to: 1
  - symbol: Tl # 2
    coordinates: [  0.662108581016581,  0.267965040355487,  0.403422221178223 ]
    mass: 204.383300
    reduced_to: 1
  - symbol: Tl # 3
    coordinates: [  0.995441914349914,  0.267965040355487,  0.403422221178223 ]
    mass: 204.383300
    reduced_to: 1
  - symbol: Tl # 4
    coordinates: [  0.328775247683247,  0.601298373688820,  0.403422221178223 ]
    mass: 204.383300
    reduced_to: 1
  - symbol: Tl # 5
    coordinates: [  0.662108581016581,  0.601298373688820,  0.403422221178223 ]
    mass: 204.383300
    reduced_to: 1
  - symbol: Tl # 6
    coordinates: [  0.995441914349914,  0.601298373688820,  0.403422221178223 ]
    mass: 204.383300
    reduced_to: 1
  - symbol: Tl # 7
    coordinates: [  0.328775247683247,  0.934631707022153,  0.403422221178223 ]
    mass: 204.383300
    reduced_to: 1
  - symbol: Tl # 8
    coordinates: [  0.662108581016581,  0.934631707022153,  0.403422221178223 ]
    mass: 204.383300
    reduced_to: 1
  - symbol: Tl # 9
    coordinates: [  0.995441914349914,  0.934631707022153,  0.403422221178223 ]
    mass: 204.383300
    reduced_to: 1
  - symbol: Tl # 10
    coordinates: [  0.328775247683247,  0.267965040355487,  0.903422221178223 ]
    mass: 204.383300
    reduced_to: 1
  - symbol: Tl # 11
    coordinates: [  0.662108581016581,  0.267965040355487,  0.903422221178223 ]
    mass: 204.383300
    reduced_to: 1
  - symbol: Tl # 12
    coordinates: [  0.995441914349914,  0.267965040355487,  0.903422221178223 ]
    mass: 204.383300
    reduced_to: 1
  - symbol: Tl # 13
    coordinates: [  0.328775247683247,  0.601298373688820,  0.903422221178223 ]
    mass: 204.383300
    reduced_to: 1
  - symbol: Tl # 14
    coordinates: [  0.662108581016581,  0.601298373688820,  0.903422221178223 ]
    mass: 204.383300
    reduced_to: 1
  - symbol: Tl # 15
    coordinates: [  0.995441914349914,  0.601298373688820,  0.903422221178223 ]
    mass: 204.383300
    reduced_to: 1
  - symbol: Tl # 16
    coordinates: [  0.328775247683247,  0.934631707022153,  0.903422221178223 ]
    mass: 204.383300
    reduced_to: 1
  - symbol: Tl # 17
    coordinates: [  0.662108581016581,  0.934631707022153,  0.903422221178223 ]
    mass: 204.383300
    reduced_to: 1
  - symbol: Tl # 18
    coordinates: [  0.995441914349914,  0.934631707022153,  0.903422221178223 ]
    mass: 204.383300
    reduced_to: 1
  - symbol: Tl # 19
    coordinates: [  0.292627266080119,  0.223650776226516,  0.188276311455251 ]
    mass: 204.383300
    reduced_to: 19
  - symbol: Tl # 20
    coordinates: [  0.625960599413453,  0.223650776226516,  0.188276311455251 ]
    mass: 204.383300
    reduced_to: 19
  - symbol: Tl # 21
    coordinates: [  0.959293932746786,  0.223650776226516,  0.188276311455251 ]
    mass: 204.383300
    reduced_to: 19
  - symbol: Tl # 22
    coordinates: [  0.292627266080119,  0.556984109559849,  0.188276311455251 ]
    mass: 204.383300
    reduced_to: 19
  - symbol: Tl # 23
    coordinates: [  0.625960599413453,  0.556984109559849,  0.188276311455251 ]
    mass: 204.383300
    reduced_to: 19
  - symbol: Tl # 24
    coordinates: [  0.959293932746786,  0.556984109559849,  0.188276311455251 ]
    mass: 204.383300
    reduced_to: 19
  - symbol: Tl # 25
    coordinates: [  0.292627266080119,  0.890317442893183,  0.188276311455251 ]
    mass: 204.383300
    reduced_to: 19
  - symbol: Tl # 26
    coordinates: [  0.625960599413453,  0.890317442893183,  0.188276311455251 ]
    mass: 204.383300
    reduced_to: 19
  - symbol: Tl # 27
    coordinates: [  0.959293932746786,  0.890317442893183,  0.188276311455251 ]
    mass: 204.383300
    reduced_to: 19
  - symbol: Tl # 28
    coordinates: [  0.292627266080119,  0.223650776226516,  0.688276311455251 ]
    mass: 204.383300
    reduced_to: 19
  - symbol: Tl # 29
    coordinates: [  0.625960599413453,  0.223650776226516,  0.688276311455251 ]
    mass: 204.383300
    reduced_to: 19
  - symbol: Tl # 30
    coordinates: [  0.959293932746786,  0.223650776226516,  0.688276311455251 ]
    mass: 204.383300
    reduced_to: 19
  - symbol: Tl # 31
    coordinates: [  0.292627266080119,  0.556984109559849,  0.688276311455251 ]
    mass: 204.383300
    reduced_to: 19
  - symbol: Tl # 32
    coordinates: [  0.625960599413453,  0.556984109559849,  0.688276311455251 ]
    mass: 204.383300
    reduced_to: 19
  - symbol: Tl # 33
    coordinates: [  0.959293932746786,  0.556984109559849,  0.688276311455251 ]
    mass: 204.383300
    reduced_to: 19
  - symbol: Tl # 34
    coordinates: [  0.292627266080119,  0.890317442893183,  0.688276311455251 ]
    mass: 204.383300
    reduced_to: 19
  - symbol: Tl # 35
    coordinates: [  0.625960599413453,  0.890317442893183,  0.688276311455251 ]
    mass: 204.383300
    reduced_to: 19
  - symbol: Tl # 36
    coordinates: [  0.959293932746786,  0.890317442893183,  0.688276311455251 ]
    mass: 204.383300
    reduced_to: 19
  - symbol: Tl # 37
    coordinates: [  0.065368292462004,  0.328775247642121,  0.028422221016017 ]
    mass: 204.383300
    reduced_to: 37
  - symbol: Tl # 38
    coordinates: [  0.398701625795338,  0.328775247642121,  0.028422221016017 ]
    mass: 204.383300
    reduced_to: 37
  - symbol: Tl # 39
    coordinates: [  0.732034959128671,  0.328775247642121,  0.028422221016017 ]
    mass: 204.383300
    reduced_to: 37
  - symbol: Tl # 40
    coordinates: [  0.065368292462004,  0.662108580975454,  0.028422221016017 ]
    mass: 204.383300
    reduced_to: 37
  - symbol: Tl # 41
    coordinates: [  0.398701625795338,  0.662108580975454,  0.028422221016017 ]
    mass: 204.383300
    reduced_to: 37
  - symbol: Tl # 42
    coordinates: [  0.732034959128671,  0.662108580975454,  0.028422221016017 ]
    mass: 204.383300
    reduced_to: 37
  - symbol: Tl # 43
    coordinates: [  0.065368292462004,  0.995441914308787,  0.028422221016017 ]
    mass: 204.383300
    reduced_to: 37
  - symbol: Tl # 44
    coordinates: [  0.398701625795338,  0.995441914308787,  0.028422221016017 ]
    mass: 204.383300
    reduced_to: 37
  - symbol: Tl # 45
    coordinates: [  0.732034959128671,  0.995441914308787,  0.028422221016017 ]
    mass: 204.383300
    reduced_to: 37
  - symbol: Tl # 46
    coordinates: [  0.065368292462004,  0.328775247642121,  0.528422221016017 ]
    mass: 204.383300
    reduced_to: 37
  - symbol: Tl # 47
    coordinates: [  0.398701625795338,  0.328775247642121,  0.528422221016017 ]
    mass: 204.383300
    reduced_to: 37
  - symbol: Tl # 48
    coordinates: [  0.732034959128671,  0.328775247642121,  0.528422221016017 ]
    mass: 204.383300
    reduced_to: 37
  - symbol: Tl # 49
    coordinates: [  0.065368292462004,  0.662108580975454,  0.528422221016017 ]
    mass: 204.383300
    reduced_to: 37
  - symbol: Tl # 50
    coordinates: [  0.398701625795338,  0.662108580975454,  0.528422221016017 ]
    mass: 204.383300
    reduced_to: 37
  - symbol: Tl # 51
    coordinates: [  0.732034959128671,  0.662108580975454,  0.528422221016017 ]
    mass: 204.383300
    reduced_to: 37
  - symbol: Tl # 52
    coordinates: [  0.065368292462004,  0.995441914308787,  0.528422221016017 ]
    mass: 204.383300
    reduced_to: 37
  - symbol: Tl # 53
    coordinates: [  0.398701625795338,  0.995441914308787,  0.528422221016017 ]
    mass: 204.383300
    reduced_to: 37
  - symbol: Tl # 54
    coordinates: [  0.732034959128671,  0.995441914308787,  0.528422221016017 ]
    mass: 204.383300
    reduced_to: 37
  - symbol: Tl # 55
    coordinates: [  0.062736671624733,  0.127695703496674,  0.285751225078883 ]
    mass: 204.383300
    reduced_to: 55
  - symbol: Tl # 56
    coordinates: [  0.396070004958066,  0.127695703496674,  0.285751225078883 ]
    mass: 204.383300
    reduced_to: 55
  - symbol: Tl # 57
    coordinates: [  0.729403338291399,  0.127695703496674,  0.285751225078883 ]
    mass: 204.383300
    reduced_to: 55
  - symbol: Tl # 58
    coordinates: [  0.062736671624733,  0.461029036830008,  0.285751225078883 ]
    mass: 204.383300
    reduced_to: 55
  - symbol: Tl # 59
    coordinates: [  0.396070004958066,  0.461029036830008,  0.285751225078883 ]
    mass: 204.383300
    reduced_to: 55
  - symbol: Tl # 60
    coordinates: [  0.729403338291399,  0.461029036830008,  0.285751225078883 ]
    mass: 204.383300
    reduced_to: 55
  - symbol: Tl # 61
    coordinates: [  0.062736671624733,  0.794362370163341,  0.285751225078883 ]
    mass: 204.383300
    reduced_to: 55
  - symbol: Tl # 62
    coordinates: [  0.396070004958066,  0.794362370163341,  0.285751225078883 ]
    mass: 204.383300
    reduced_to: 55
  - symbol: Tl # 63
    coordinates: [  0.729403338291399,  0.794362370163341,  0.285751225078883 ]
    mass: 204.383300
    reduced_to: 55
  - symbol: Tl # 64
    coordinates: [  0.062736671624733,  0.127695703496674,  0.785751225078883 ]
    mass: 204.383300
    reduced_to: 55
  - symbol: Tl # 65
    coordinates: [  0.396070004958066,  0.127695703496674,  0.785751225078883 ]
    mass: 204.383300
    reduced_to: 55
  - symbol: Tl # 66
    coordinates: [  0.729403338291399,  0.127695703496674,  0.785751225078883 ]
    mass: 204.383300
    reduced_to: 55
  - symbol: Tl # 67
    coordinates: [  0.062736671624733,  0.461029036830008,  0.785751225078883 ]
    mass: 204.383300
    reduced_to: 55
  - symbol: Tl # 68
    coordinates: [  0.396070004958066,  0.461029036830008,  0.785751225078883 ]
    mass: 204.383300
    reduced_to: 55
  - symbol: Tl # 69
    coordinates: [  0.729403338291399,  0.461029036830008,  0.785751225078883 ]
    mass: 204.383300
    reduced_to: 55
  - symbol: Tl # 70
    coordinates: [  0.062736671624733,  0.794362370163341,  0.785751225078883 ]
    mass: 204.383300
    reduced_to: 55
  - symbol: Tl # 71
    coordinates: [  0.396070004958066,  0.794362370163341,  0.785751225078883 ]
    mass: 204.383300
    reduced_to: 55
  - symbol: Tl # 72
    coordinates: [  0.729403338291399,  0.794362370163341,  0.785751225078883 ]
    mass: 204.383300
    reduced_to: 55
  - symbol: Tl # 73
    coordinates: [  0.223650776306466,  0.040706067238900,  0.063276311631307 ]
    mass: 204.383300
    reduced_to: 73
  - symbol: Tl # 74
    coordinates: [  0.556984109639799,  0.040706067238900,  0.063276311631307 ]
    mass: 204.383300
    reduced_to: 73
  - symbol: Tl # 75
    coordinates: [  0.890317442973132,  0.040706067238900,  0.063276311631307 ]
    mass: 204.383300
    reduced_to: 73
  - symbol: Tl # 76
    coordinates: [  0.223650776306466,  0.374039400572233,  0.063276311631307 ]
    mass: 204.383300
    reduced_to: 73
  - symbol: Tl # 77
    coordinates: [  0.556984109639799,  0.374039400572233,  0.063276311631307 ]
    mass: 204.383300
    reduced_to: 73
  - symbol: Tl # 78
    coordinates: [  0.890317442973132,  0.374039400572233,  0.063276311631307 ]
    mass: 204.383300
    reduced_to: 73
  - symbol: Tl # 79
    coordinates: [  0.223650776306466,  0.707372733905567,  0.063276311631307 ]
    mass: 204.383300
    reduced_to: 73
  - symbol: Tl # 80
    coordinates: [  0.556984109639799,  0.707372733905567,  0.063276311631307 ]
    mass: 204.383300
    reduced_to: 73
  - symbol: Tl # 81
    coordinates: [  0.890317442973132,  0.707372733905567,  0.063276311631307 ]
    mass: 204.383300
    reduced_to: 73
  - symbol: Tl # 82
    coordinates: [  0.223650776306466,  0.040706067238900,  0.563276311631307 ]
    mass: 204.383300
    reduced_to: 73
  - symbol: Tl # 83
    coordinates: [  0.556984109639799,  0.040706067238900,  0.563276311631307 ]
    mass: 204.383300
    reduced_to: 73
  - symbol: Tl # 84
    coordinates: [  0.890317442973132,  0.040706067238900,  0.563276311631307 ]
    mass: 204.383300
    reduced_to: 73
  - symbol: Tl # 85
    coordinates: [  0.223650776306466,  0.374039400572233,  0.563276311631307 ]
    mass: 204.383300
    reduced_to: 73
  - symbol: Tl # 86
    coordinates: [  0.556984109639799,  0.374039400572233,  0.563276311631307 ]
    mass: 204.383300
    reduced_to: 73
  - symbol: Tl # 87
    coordinates: [  0.890317442973132,  0.374039400572233,  0.563276311631307 ]
    mass: 204.383300
    reduced_to: 73
  - symbol: Tl # 88
    coordinates: [  0.223650776306466,  0.707372733905567,  0.563276311631307 ]
    mass: 204.383300
    reduced_to: 73
  - symbol: Tl # 89
    coordinates: [  0.556984109639799,  0.707372733905567,  0.563276311631307 ]
    mass: 204.383300
    reduced_to: 73
  - symbol: Tl # 90
    coordinates: [  0.890317442973132,  0.707372733905567,  0.563276311631307 ]
    mass: 204.383300
    reduced_to: 73
  - symbol: Tl # 91
    coordinates: [  0.127695703321856,  0.270596661811174,  0.160751225127964 ]
    mass: 204.383300
    reduced_to: 91
  - symbol: Tl # 92
    coordinates: [  0.461029036655189,  0.270596661811174,  0.160751225127964 ]
    mass: 204.383300
    reduced_to: 91
  - symbol: Tl # 93
    coordinates: [  0.794362369988523,  0.270596661811174,  0.160751225127964 ]
    mass: 204.383300
    reduced_to: 91
  - symbol: Tl # 94
    coordinates: [  0.127695703321856,  0.603929995144508,  0.160751225127964 ]
    mass: 204.383300
    reduced_to: 91
  - symbol: Tl # 95
    coordinates: [  0.461029036655189,  0.603929995144508,  0.160751225127964 ]
    mass: 204.383300
    reduced_to: 91
  - symbol: Tl # 96
    coordinates: [  0.794362369988523,  0.603929995144508,  0.160751225127964 ]
    mass: 204.383300
    reduced_to: 91
  - symbol: Tl # 97
    coordinates: [  0.127695703321856,  0.937263328477841,  0.160751225127964 ]
    mass: 204.383300
    reduced_to: 91
  - symbol: Tl # 98
    coordinates: [  0.461029036655189,  0.937263328477841,  0.160751225127964 ]
    mass: 204.383300
    reduced_to: 91
  - symbol: Tl # 99
    coordinates: [  0.794362369988523,  0.937263328477841,  0.160751225127964 ]
    mass: 204.383300
    reduced_to: 91
  - symbol: Tl # 100
    coordinates: [  0.127695703321856,  0.270596661811174,  0.660751225127964 ]
    mass: 204.383300
    reduced_to: 91
  - symbol: Tl # 101
    coordinates: [  0.461029036655189,  0.270596661811174,  0.660751225127964 ]
    mass: 204.383300
    reduced_to: 91
  - symbol: Tl # 102
    coordinates: [  0.794362369988523,  0.270596661811174,  0.660751225127964 ]
    mass: 204.383300
    reduced_to: 91
  - symbol: Tl # 103
    coordinates: [  0.127695703321856,  0.603929995144508,  0.660751225127964 ]
    mass: 204.383300
    reduced_to: 91
  - symbol: Tl # 104
    coordinates: [  0.461029036655189,  0.603929995144508,  0.660751225127964 ]
    mass: 204.383300
    reduced_to: 91
  - symbol: Tl # 105
    coordinates: [  0.794362369988523,  0.603929995144508,  0.660751225127964 ]
    mass: 204.383300
    reduced_to: 91
  - symbol: Tl # 106
    coordinates: [  0.127695703321856,  0.937263328477841,  0.660751225127964 ]
    mass: 204.383300
    reduced_to: 91
  - symbol: Tl # 107
    coordinates: [  0.461029036655189,  0.937263328477841,  0.660751225127964 ]
    mass: 204.383300
    reduced_to: 91
  - symbol: Tl # 108
    coordinates: [  0.794362369988523,  0.937263328477841,  0.660751225127964 ]
    mass: 204.383300
    reduced_to: 91
  - symbol: Tl # 109
    coordinates: [  0.040706067291913,  0.109682556999694,  0.438276311768342 ]
    mass: 204.383300
    reduced_to: 109
  - symbol: Tl # 110
    coordinates: [  0.374039400625246,  0.109682556999694,  0.438276311768342 ]
    mass: 204.383300
    reduced_to: 109
  - symbol: Tl # 111
    coordinates: [  0.707372733958579,  0.109682556999694,  0.438276311768342 ]
    mass: 204.383300
    reduced_to: 109
  - symbol: Tl # 112
    coordinates: [  0.040706067291913,  0.443015890333027,  0.438276311768342 ]
    mass: 204.383300
    reduced_to: 109
  - symbol: Tl # 113
    coordinates: [  0.374039400625246,  0.443015890333027,  0.438276311768342 ]
    mass: 204.383300
    reduced_to: 109
  - symbol: Tl # 114
    coordinates: [  0.707372733958579,  0.443015890333027,  0.438276311768342 ]
    mass: 204.383300
    reduced_to: 109
  - symbol: Tl # 115
    coordinates: [  0.040706067291913,  0.776349223666360,  0.438276311768342 ]
    mass: 204.383300
    reduced_to: 109
  - symbol: Tl # 116
    coordinates: [  0.374039400625246,  0.776349223666360,  0.438276311768342 ]
    mass: 204.383300
    reduced_to: 109
  - symbol: Tl # 117
    coordinates: [  0.707372733958579,  0.776349223666360,  0.438276311768342 ]
    mass: 204.383300
    reduced_to: 109
  - symbol: Tl # 118
    coordinates: [  0.040706067291913,  0.109682556999694,  0.938276311768342 ]
    mass: 204.383300
    reduced_to: 109
  - symbol: Tl # 119
    coordinates: [  0.374039400625246,  0.109682556999694,  0.938276311768342 ]
    mass: 204.383300
    reduced_to: 109
  - symbol: Tl # 120
    coordinates: [  0.707372733958579,  0.109682556999694,  0.938276311768342 ]
    mass: 204.383300
    reduced_to: 109
  - symbol: Tl # 121
    coordinates: [  0.040706067291913,  0.443015890333027,  0.938276311768342 ]
    mass: 204.383300
    reduced_to: 109
  - symbol: Tl # 122
    coordinates: [  0.374039400625246,  0.443015890333027,  0.938276311768342 ]
    mass: 204.383300
    reduced_to: 109
  - symbol: Tl # 123
    coordinates: [  0.707372733958579,  0.443015890333027,  0.938276311768342 ]
    mass: 204.383300
    reduced_to: 109
  - symbol: Tl # 124
    coordinates: [  0.040706067291913,  0.776349223666360,  0.938276311768342 ]
    mass: 204.383300
    reduced_to: 109
  - symbol: Tl # 125
    coordinates: [  0.374039400625246,  0.776349223666360,  0.938276311768342 ]
    mass: 204.383300
    reduced_to: 109
  - symbol: Tl # 126
    coordinates: [  0.707372733958579,  0.776349223666360,  0.938276311768342 ]
    mass: 204.383300
    reduced_to: 109
  - symbol: Tl # 127
    coordinates: [  0.004558085894348,  0.065368292033198,  0.153422220946213 ]
    mass: 204.383300
    reduced_to: 127
  - symbol: Tl # 128
    coordinates: [  0.337891419227681,  0.065368292033198,  0.153422220946213 ]
    mass: 204.383300
    reduced_to: 127
  - symbol: Tl # 129
    coordinates: [  0.671224752561014,  0.065368292033198,  0.153422220946213 ]
    mass: 204.383300
    reduced_to: 127
  - symbol: Tl # 130
    coordinates: [  0.004558085894348,  0.398701625366531,  0.153422220946213 ]
    mass: 204.383300
    reduced_to: 127
  - symbol: Tl # 131
    coordinates: [  0.337891419227681,  0.398701625366531,  0.153422220946213 ]
    mass: 204.383300
    reduced_to: 127
  - symbol: Tl # 132
    coordinates: [  0.671224752561014,  0.398701625366531,  0.153422220946213 ]
    mass: 204.383300
    reduced_to: 127
  - symbol: Tl # 133
    coordinates: [  0.004558085894348,  0.732034958699865,  0.153422220946213 ]
    mass: 204.383300
    reduced_to: 127
  - symbol: Tl # 134
    coordinates: [  0.337891419227681,  0.732034958699865,  0.153422220946213 ]
    mass: 204.383300
    reduced_to: 127
  - symbol: Tl # 135
    coordinates: [  0.671224752561014,  0.732034958699865,  0.153422220946213 ]
    mass: 204.383300
    reduced_to: 127
  - symbol: Tl # 136
    coordinates: [  0.004558085894348,  0.065368292033198,  0.653422220946213 ]
    mass: 204.383300
    reduced_to: 127
  - symbol: Tl # 137