phonopy:
  version: "2.27.0"
  frequency_unit_conversion_factor: 15.633302
  symmetry_tolerance: 1.00000e-04

space_group:
  type: "P4_1"
  number: 76
  Hall_symbol: "P 4w"

primitive_matrix:
- [  1.000000000000000, -0.000000000000000,  0.000000000000000 ]
- [ -0.000000000000000,  1.000000000000000, -0.000000000000000 ]
- [  0.000000000000000, -0.000000000000000,  1.000000000000000 ]

supercell_matrix:
- [   3,   0,   0 ]
- [   0,   3,   0 ]
- [   0,   0,   2 ]

primitive_cell:
  lattice:
  - [     8.936839189115789,    -0.000000000002130,    -0.000000000456377 ] # a
  - [    -0.000000000002125,     8.936839189002969,    -0.000000000654185 ] # b
  - [    -0.000000000786270,    -0.000000001109461,    16.157515600460464 ] # c
  points:
  - symbol: Tl # 1
    coordinates: [  0.986325742733852,  0.803895122339253,  0.806844442139461 ]
    mass: 204.383300
  - symbol: Tl # 2
    coordinates: [  0.877881798191093,  0.670952328754557,  0.376552623199048 ]
    mass: 204.383300
  - symbol: Tl # 3
    coordinates: [  0.196104877502852,  0.986325742743855,  0.056844442100009 ]
    mass: 204.383300
  - symbol: Tl # 4
    coordinates: [  0.188210014431253,  0.383087109921247,  0.571502450224848 ]
    mass: 204.383300
  - symbol: Tl # 5
    coordinates: [  0.670952328786774,  0.122118201814697,  0.126552623253344 ]
    mass: 204.383300
  - symbol: Tl # 6
    coordinates: [  0.383087109836367,  0.811789985631874,  0.321502450239734 ]
    mass: 204.383300
  - symbol: Tl # 7
    coordinates: [  0.122118201830848,  0.329047671208100,  0.876552623279286 ]
    mass: 204.383300
  - symbol: Tl # 8
    coordinates: [  0.013674257347382,  0.196104877277627,  0.306844442072158 ]
    mass: 204.383300
  - symbol: Tl # 9
    coordinates: [  0.616912890154062,  0.188210014337957,  0.821502450233613 ]
    mass: 204.383300
  - symbol: Tl # 10
    coordinates: [  0.811789985732767,  0.616912890258028,  0.071502450251227 ]
    mass: 204.383300
  - symbol: Tl # 11
    coordinates: [  0.329047671244614,  0.877881798162116,  0.626552623222732 ]
    mass: 204.383300
  - symbol: Tl # 12
    coordinates: [  0.803895122553990,  0.013674257343814,  0.556844442109392 ]
    mass: 204.383300
  - symbol: Pb # 13
    coordinates: [  0.720772376029423,  0.490355482441831,  0.631611529807532 ]
    mass: 207.200000
  - symbol: Pb # 14
    coordinates: [  0.509644517535747,  0.720772376026232,  0.881611529840276 ]
    mass: 207.200000
  - symbol: Pb # 15
    coordinates: [  0.490355482466570,  0.279227624098143,  0.381611529852756 ]
    mass: 207.200000
  - symbol: Pb # 16
    coordinates: [  0.279227624095184,  0.509644517516689,  0.131611529881659 ]
    mass: 207.200000
  - symbol: Br # 17
    coordinates: [  0.347894041335575,  0.530977763940951,  0.761529674142806 ]
    mass: 79.904000
  - symbol: Br # 18
    coordinates: [  0.485081949627694,  0.785821860166716,  0.109550449842001 ]
    mass: 79.904000
  - symbol: Br # 19
    coordinates: [  0.214178139753801,  0.485081949563992,  0.359550449804529 ]
    mass: 79.904000
  - symbol: Br # 20
    coordinates: [  0.688925462903261,  0.010110812544615,  0.350337153990279 ]
    mass: 79.904000
  - symbol: Br # 21
    coordinates: [  0.647043752052708,  0.837495374609953,  0.727462095479151 ]
    mass: 79.904000
  - symbol: Br # 22
    coordinates: [  0.514918050434064,  0.214178139845054,  0.609550449902174 ]
    mass: 79.904000
  - symbol: Br # 23
    coordinates: [  0.652105958471594,  0.469022236087781,  0.261529674085948 ]
    mass: 79.904000
  - symbol: Br # 24
    coordinates: [  0.469022235965351,  0.347894041295723,  0.011529674133156 ]
    mass: 79.904000
  - symbol: Br # 25
    coordinates: [  0.010110812548686,  0.311074537095834,  0.100337153990345 ]
    mass: 79.904000
  - symbol: Br # 26
    coordinates: [  0.949747370576068,  0.221624638847271,  0.701610571128939 ]
    mass: 79.904000
  - symbol: Br # 27
    coordinates: [  0.785821860071789,  0.514918050367510,  0.859550449949234 ]
    mass: 79.904000
  - symbol: Br # 28
    coordinates: [  0.778375361391612,  0.949747370603666,  0.951610571147951 ]
    mass: 79.904000
  - symbol: Br # 29
    coordinates: [  0.221624638692769,  0.050252629432697,  0.451610571161577 ]
    mass: 79.904000
  - symbol: Br # 30
    coordinates: [  0.162504625315998,  0.647043752028741,  0.977462095514808 ]
    mass: 79.904000
  - symbol: Br # 31
    coordinates: [  0.311074537007980,  0.989889187461250,  0.850337153902074 ]
    mass: 79.904000
  - symbol: Br # 32
    coordinates: [  0.837495374651514,  0.352956247973432,  0.477462095450116 ]
    mass: 79.904000
  - symbol: Br # 33
    coordinates: [  0.989889187468341,  0.688925462985319,  0.600337153908978 ]
    mass: 79.904000
  - symbol: Br # 34
    coordinates: [  0.530977763838855,  0.652105958433075,  0.511529674092800 ]
    mass: 79.904000
  - symbol: Br # 35
    coordinates: [  0.352956248001340,  0.162504625284048,  0.227462095483624 ]
    mass: 79.904000
  - symbol: Br # 36
    coordinates: [  0.050252629418320,  0.778375361556477,  0.201610571182402 ]
    mass: 79.904000
  reciprocal_lattice: # without 2pi
  - [     0.111896385157954,     0.000000000000027,     0.000000000005445 ] # a*
  - [     0.000000000000027,     0.111896385159367,     0.000000000007683 ] # b*
  - [     0.000000000003161,     0.000000000004530,     0.061890703046668 ] # c*

unit_cell:
  lattice:
  - [     8.936839189115789,    -0.000000000002130,    -0.000000000456377 ] # a
  - [    -0.000000000002125,     8.936839189002969,    -0.000000000654185 ] # b
  - [    -0.000000000786270,    -0.000000001109461,    16.157515600460467 ] # c
  points:
  - symbol: Tl # 1
    coordinates: [  0.986325742733852,  0.803895122339253,  0.806844442139460 ]
    mass: 204.383300
    reduced_to: 1
  - symbol: Tl # 2
    coordinates: [  0.877881798191093,  0.670952328754557,  0.376552623199048 ]
    mass: 204.383300
    reduced_to: 2
  - symbol: Tl # 3
    coordinates: [  0.196104877502852,  0.986325742743855,  0.056844442100009 ]
    mass: 204.383300
    reduced_to: 3
  - symbol: Tl # 4
    coordinates: [  0.188210014431253,  0.383087109921247,  0.571502450224848 ]
    mass: 204.383300
    reduced_to: 4
  - symbol: Tl # 5
    coordinates: [  0.670952328786774,  0.122118201814697,  0.126552623253344 ]
    mass: 204.383300
    reduced_to: 5
  - symbol: Tl # 6
    coordinates: [  0.383087109836367,  0.811789985631874,  0.321502450239734 ]
    mass: 204.383300
    reduced_to: 6
  - symbol: Tl # 7
    coordinates: [  0.122118201830848,  0.329047671208100,  0.876552623279286 ]
    mass: 204.383300
    reduced_to: 7
  - symbol: Tl # 8
    coordinates: [  0.013674257347382,  0.196104877277627,  0.306844442072158 ]
    mass: 204.383300
    reduced_to: 8
  - symbol: Tl # 9
    coordinates: [  0.616912890154062,  0.188210014337957,  0.821502450233613 ]
    mass: 204.383300
    reduced_to: 9
  - symbol: Tl # 10
    coordinates: [  0.811789985732767,  0.616912890258028,  0.071502450251227 ]
    mass: 204.383300
    reduced_to: 10
  - symbol: Tl # 11
    coordinates: [  0.329047671244614,  0.877881798162116,  0.626552623222732 ]
    mass: 204.383300
    reduced_to: 11
  - symbol: Tl # 12
    coordinates: [  0.803895122553990,  0.013674257343814,  0.556844442109392 ]
    mass: 204.383300
    reduced_to: 12
  - symbol: Pb # 13
    coordinates: [  0.720772376029423,  0.490355482441831,  0.631611529807532 ]
    mass: 207.200000
    reduced_to: 13
  - symbol: Pb # 14
    coordinates: [  0.509644517535747,  0.720772376026232,  0.881611529840276 ]
    mass: 207.200000
    reduced_to: 14
  - symbol: Pb # 15
    coordinates: [  0.490355482466570,  0.279227624098143,  0.381611529852756 ]
    mass: 207.200000
    reduced_to: 15
  - symbol: Pb # 16
    coordinates: [  0.279227624095184,  0.509644517516689,  0.131611529881659 ]
    mass: 207.200000
    reduced_to: 16
  - symbol: Br # 17
    coordinates: [  0.347894041335575,  0.530977763940951,  0.761529674142806 ]
    mass: 79.904000
    reduced_to: 17
  - symbol: Br # 18
    coordinates: [  0.485081949627694,  0.785821860166716,  0.109550449842001 ]
    mass: 79.904000
    reduced_to: 18
  - symbol: Br # 19
    coordinates: [  0.214178139753801,  0.485081949563992,  0.359550449804529 ]
    mass: 79.904000
    reduced_to: 19
  - symbol: Br # 20
    coordinates: [  0.688925462903261,  0.010110812544615,  0.350337153990279 ]
    mass: 79.904000
    reduced_to: 20
  - symbol: Br # 21
    coordinates: [  0.647043752052708,  0.837495374609953,  0.727462095479151 ]
    mass: 79.904000
    reduced_to: 21
  - symbol: Br # 22
    coordinates: [  0.514918050434064,  0.214178139845054,  0.609550449902174 ]
    mass: 79.904000
    reduced_to: 22
  - symbol: Br # 23
    coordinates: [  0.652105958471594,  0.469022236087781,  0.261529674085948 ]
    mass: 79.904000
    reduced_to: 23
  - symbol: Br # 24
    coordinates: [  0.469022235965351,  0.347894041295723,  0.011529674133156 ]
    mass: 79.904000
    reduced_to: 24
  - symbol: Br # 25
    coordinates: [  0.010110812548686,  0.311074537095834,  0.100337153990345 ]
    mass: 79.904000
    reduced_to: 25
  - symbol: Br # 26
    coordinates: [  0.949747370576068,  0.221624638847271,  0.701610571128939 ]
    mass: 79.904000
    reduced_to: 26
  - symbol: Br # 27
    coordinates: [  0.785821860071789,  0.514918050367510,  0.859550449949234 ]
    mass: 79.904000
    reduced_to: 27
  - symbol: Br # 28
    coordinates: [  0.778375361391612,  0.949747370603666,  0.951610571147951 ]
    mass: 79.904000
    reduced_to: 28
  - symbol: Br # 29
    coordinates: [  0.221624638692769,  0.050252629432697,  0.451610571161576 ]
    mass: 79.904000
    reduced_to: 29
  - symbol: Br # 30
    coordinates: [  0.162504625315998,  0.647043752028741,  0.977462095514808 ]
    mass: 79.904000
    reduced_to: 30
  - symbol: Br # 31
    coordinates: [  0.311074537007980,  0.989889187461250,  0.850337153902074 ]
    mass: 79.904000
    reduced_to: 31
  - symbol: Br # 32
    coordinates: [  0.837495374651514,  0.352956247973432,  0.477462095450116 ]
    mass: 79.904000
    reduced_to: 32
  - symbol: Br # 33
    coordinates: [  0.989889187468341,  0.688925462985319,  0.600337153908978 ]
    mass: 79.904000
    reduced_to: 33
  - symbol: Br # 34
    coordinates: [  0.530977763838855,  0.652105958433075,  0.511529674092800 ]
    mass: 79.904000
    reduced_to: 34
  - symbol: Br # 35
    coordinates: [  0.352956248001340,  0.162504625284048,  0.227462095483624 ]
    mass: 79.904000
    reduced_to: 35
  - symbol: Br # 36
    coordinates: [  0.050252629418320,  0.778375361556477,  0.201610571182402 ]
    mass: 79.904000
    reduced_to: 36

supercell:
  lattice:
  - [    26.810517567347368,    -0.000000000006390,    -0.000000001369132 ] # a
  - [    -0.000000000006376,    26.810517567008908,    -0.000000001962555 ] # b
  - [    -0.000000001572541,    -0.000000002218923,    32.315031200920934 ] # c
  points:
  - symbol: Tl # 1
    coordinates: [  0.328775247577951,  0.267965040779751,  0.403422221069730 ]
    mass: 204.383300
    reduced_to: 1
  - symbol: Tl # 2
    coordinates: [  0.662108580911284,  0.267965040779751,  0.403422221069730 ]
    mass: 204.383300
    reduced_to: 1
  - symbol: Tl # 3
    coordinates: [  0.995441914244617,  0.267965040779751,  0.403422221069730 ]
    mass: 204.383300
    reduced_to: 1
  - symbol: Tl # 4
    coordinates: [  0.328775247577951,  0.601298374113084,  0.403422221069730 ]
    mass: 204.383300
    reduced_to: 1
  - symbol: Tl # 5
    coordinates: [  0.662108580911284,  0.601298374113084,  0.403422221069730 ]
    mass: 204.383300
    reduced_to: 1
  - symbol: Tl # 6
    coordinates: [  0.995441914244617,  0.601298374113084,  0.403422221069730 ]
    mass: 204.383300
    reduced_to: 1
  - symbol: Tl # 7
    coordinates: [  0.328775247577951,  0.934631707446418,  0.403422221069730 ]
    mass: 204.383300
    reduced_to: 1
  - symbol: Tl # 8
    coordinates: [  0.662108580911284,  0.934631707446418,  0.403422221069730 ]
    mass: 204.383300
    reduced_to: 1
  - symbol: Tl # 9
    coordinates: [  0.995441914244617,  0.934631707446418,  0.403422221069730 ]
    mass: 204.383300
    reduced_to: 1
  - symbol: Tl # 10
    coordinates: [  0.328775247577951,  0.267965040779751,  0.903422221069730 ]
    mass: 204.383300
    reduced_to: 1
  - symbol: Tl # 11
    coordinates: [  0.662108580911284,  0.267965040779751,  0.903422221069730 ]
    mass: 204.383300
    reduced_to: 1
  - symbol: Tl # 12
    coordinates: [  0.995441914244617,  0.267965040779751,  0.903422221069730 ]
    mass: 204.383300
    reduced_to: 1
  - symbol: Tl # 13
    coordinates: [  0.328775247577951,  0.601298374113084,  0.903422221069730 ]
    mass: 204.383300
    reduced_to: 1
  - symbol: Tl # 14
    coordinates: [  0.662108580911284,  0.601298374113084,  0.903422221069730 ]
    mass: 204.383300
    reduced_to: 1
  - symbol: Tl # 15
    coordinates: [  0.995441914244617,  0.601298374113084,  0.903422221069730 ]
    mass: 204.383300
    reduced_to: 1
  - symbol: Tl # 16
    coordinates: [  0.328775247577951,  0.934631707446418,  0.903422221069730 ]
    mass: 204.383300
    reduced_to: 1
  - symbol: Tl # 17
    coordinates: [  0.662108580911284,  0.934631707446418,  0.903422221069730 ]
    mass: 204.383300
    reduced_to: 1
  - symbol: Tl # 18
    coordinates: [  0.995441914244617,  0.934631707446418,  0.903422221069730 ]
    mass: 204.383300
    reduced_to: 1
  - symbol: Tl # 19
    coordinates: [  0.292627266063698,  0.223650776251519,  0.188276311599524 ]
    mass: 204.383300
    reduced_to: 19
  - symbol: Tl # 20
    coordinates: [  0.625960599397031,  0.223650776251519,  0.188276311599524 ]
    mass: 204.383300
    reduced_to: 19
  - symbol: Tl # 21
    coordinates: [  0.959293932730364,  0.223650776251519,  0.188276311599524 ]
    mass: 204.383300
    reduced_to: 19
  - symbol: Tl # 22
    coordinates: [  0.292627266063698,  0.556984109584852,  0.188276311599524 ]
    mass: 204.383300
    reduced_to: 19
  - symbol: Tl # 23
    coordinates: [  0.625960599397031,  0.556984109584852,  0.188276311599524 ]
    mass: 204.383300
    reduced_to: 19
  - symbol: Tl # 24
    coordinates: [  0.959293932730364,  0.556984109584852,  0.188276311599524 ]
    mass: 204.383300
    reduced_to: 19
  - symbol: Tl # 25
    coordinates: [  0.292627266063698,  0.890317442918185,  0.188276311599524 ]
    mass: 204.383300
    reduced_to: 19
  - symbol: Tl # 26
    coordinates: [  0.625960599397031,  0.890317442918185,  0.188276311599524 ]
    mass: 204.383300
    reduced_to: 19
  - symbol: Tl # 27
    coordinates: [  0.959293932730364,  0.890317442918185,  0.188276311599524 ]
    mass: 204.383300
    reduced_to: 19
  - symbol: Tl # 28
    coordinates: [  0.292627266063698,  0.223650776251519,  0.688276311599524 ]
    mass: 204.383300
    reduced_to: 19
  - symbol: Tl # 29
    coordinates: [  0.625960599397031,  0.223650776251519,  0.688276311599524 ]
    mass: 204.383300
    reduced_to: 19
  - symbol: Tl # 30
    coordinates: [  0.959293932730364,  0.223650776251519,  0.688276311599524 ]
    mass: 204.383300
    reduced_to: 19
  - symbol: Tl # 31
    coordinates: [  0.292627266063698,  0.556984109584852,  0.688276311599524 ]
    mass: 204.383300
    reduced_to: 19
  - symbol: Tl # 32
    coordinates: [  0.625960599397031,  0.556984109584852,  0.688276311599524 ]
    mass: 204.383300
    reduced_to: 19
  - symbol: Tl # 33
    coordinates: [  0.959293932730364,  0.556984109584852,  0.688276311599524 ]
    mass: 204.383300
    reduced_to: 19
  - symbol: Tl # 34
    coordinates: [  0.292627266063698,  0.890317442918185,  0.688276311599524 ]
    mass: 204.383300
    reduced_to: 19
  - symbol: Tl # 35
    coordinates: [  0.625960599397031,  0.890317442918185,  0.688276311599524 ]
    mass: 204.383300
    reduced_to: 19
  - symbol: Tl # 36
    coordinates: [  0.959293932730364,  0.890317442918185,  0.688276311599524 ]
    mass: 204.383300
    reduced_to: 19
  - symbol: Tl # 37
    coordinates: [  0.065368292500951,  0.328775247581285,  0.028422221050004 ]
    mass: 204.383300
    reduced_to: 37
  - symbol: Tl # 38
    coordinates: [  0.398701625834284,  0.328775247581285,  0.028422221050004 ]
    mass: 204.383300
    reduced_to: 37
  - symbol: Tl # 39
    coordinates: [  0.732034959167617,  0.328775247581285,  0.028422221050004 ]
    mass: 204.383300
    reduced_to: 37
  - symbol: Tl # 40
    coordinates: [  0.065368292500951,  0.662108580914618,  0.028422221050004 ]
    mass: 204.383300
    reduced_to: 37
  - symbol: Tl # 41
    coordinates: [  0.398701625834284,  0.662108580914618,  0.028422221050004 ]
    mass: 204.383300
    reduced_to: 37
  - symbol: Tl # 42
    coordinates: [  0.732034959167617,  0.662108580914618,  0.028422221050004 ]
    mass: 204.383300
    reduced_to: 37
  - symbol: Tl # 43
    coordinates: [  0.065368292500951,  0.995441914247952,  0.028422221050004 ]
    mass: 204.383300
    reduced_to: 37
  - symbol: Tl # 44
    coordinates: [  0.398701625834284,  0.995441914247952,  0.028422221050004 ]
    mass: 204.383300
    reduced_to: 37
  - symbol: Tl # 45
    coordinates: [  0.732034959167617,  0.995441914247952,  0.028422221050004 ]
    mass: 204.383300
    reduced_to: 37
  - symbol: Tl # 46
    coordinates: [  0.065368292500951,  0.328775247581285,  0.528422221050004 ]
    mass: 204.383300
    reduced_to: 37
  - symbol: Tl # 47
    coordinates: [  0.398701625834284,  0.328775247581285,  0.528422221050004 ]
    mass: 204.383300
    reduced_to: 37
  - symbol: Tl # 48
    coordinates: [  0.732034959167617,  0.328775247581285,  0.528422221050004 ]
    mass: 204.383300
    reduced_to: 37
  - symbol: Tl # 49
    coordinates: [  0.065368292500951,  0.662108580914618,  0.528422221050004 ]
    mass: 204.383300
    reduced_to: 37
  - symbol: Tl # 50
    coordinates: [  0.398701625834284,  0.662108580914618,  0.528422221050004 ]
    mass: 204.383300
    reduced_to: 37
  - symbol: Tl # 51
    coordinates: [  0.732034959167617,  0.662108580914618,  0.528422221050004 ]
    mass: 204.383300
    reduced_to: 37
  - symbol: Tl # 52
    coordinates: [  0.065368292500951,  0.995441914247952,  0.528422221050004 ]
    mass: 204.383300
    reduced_to: 37
  - symbol: Tl # 53
    coordinates: [  0.398701625834284,  0.995441914247952,  0.528422221050004 ]
    mass: 204.383300
    reduced_to: 37
  - symbol: Tl # 54
    coordinates: [  0.732034959167617,  0.995441914247952,  0.528422221050004 ]
    mass: 204.383300
    reduced_to: 37
  - symbol: Tl # 55
    coordinates: [  0.062736671477084,  0.127695703307082,  0.285751225112424 ]
    mass: 204.383300
    reduced_to: 55
  - symbol: Tl # 56
    coordinates: [  0.396070004810418,  0.127695703307082,  0.285751225112424 ]
    mass: 204.383300
    reduced_to: 55
  - symbol: Tl # 57
    coordinates: [  0.729403338143751,  0.127695703307082,  0.285751225112424 ]
    mass: 204.383300
    reduced_to: 55
  - symbol: Tl # 58
    coordinates: [  0.062736671477084,  0.461029036640416,  0.285751225112424 ]
    mass: 204.383300
    reduced_to: 55
  - symbol: Tl # 59
    coordinates: [  0.396070004810418,  0.461029036640416,  0.285751225112424 ]
    mass: 204.383300
    reduced_to: 55
  - symbol: Tl # 60
    coordinates: [  0.729403338143751,  0.461029036640416,  0.285751225112424 ]
    mass: 204.383300
    reduced_to: 55
  - symbol: Tl # 61
    coordinates: [  0.062736671477084,  0.794362369973749,  0.285751225112424 ]
    mass: 204.383300
    reduced_to: 55
  - symbol: Tl # 62
    coordinates: [  0.396070004810418,  0.794362369973749,  0.285751225112424 ]
    mass: 204.383300
    reduced_to: 55
  - symbol: Tl # 63
    coordinates: [  0.729403338143751,  0.794362369973749,  0.285751225112424 ]
    mass: 204.383300
    reduced_to: 55
  - symbol: Tl # 64
    coordinates: [  0.062736671477084,  0.127695703307082,  0.785751225112424 ]
    mass: 204.383300
    reduced_to: 55
  - symbol: Tl # 65
    coordinates: [  0.396070004810418,  0.127695703307082,  0.785751225112424 ]
    mass: 204.383300
    reduced_to: 55
  - symbol: Tl # 66
    coordinates: [  0.729403338143751,  0.127695703307082,  0.785751225112424 ]
    mass: 204.383300
    reduced_to: 55
  - symbol: Tl # 67
    coordinates: [  0.062736671477084,  0.461029036640416,  0.785751225112424 ]
    mass: 204.383300
    reduced_to: 55
  - symbol: Tl # 68
    coordinates: [  0.396070004810418,  0.461029036640416,  0.785751225112424 ]
    mass: 204.383300
    reduced_to: 55
  - symbol: Tl # 69
    coordinates: [  0.729403338143751,  0.461029036640416,  0.785751225112424 ]
    mass: 204.383300
    reduced_to: 55
  - symbol: Tl # 70
    coordinates: [  0.062736671477084,  0.794362369973749,  0.785751225112424 ]
    mass: 204.383300
    reduced_to: 55
  - symbol: Tl # 71
    coordinates: [  0.396070004810418,  0.794362369973749,  0.785751225112424 ]
    mass: 204.383300
    reduced_to: 55
  - symbol: Tl # 72
    coordinates: [  0.729403338143751,  0.794362369973749,  0.785751225112424 ]
    mass: 204.383300
    reduced_to: 55
  - symbol: Tl # 73
    coordinates: [  0.223650776262258,  0.040706067271566,  0.063276311626672 ]
    mass: 204.383300
    reduced_to: 73
  - symbol: Tl # 74
    coordinates: [  0.556984109595591,  0.040706067271566,  0.063276311626672 ]
    mass: 204.383300
    reduced_to: 73
  - symbol: Tl # 75
    coordinates: [  0.890317442928925,  0.040706067271566,  0.063276311626672 ]
    mass: 204.383300
    reduced_to: 73
  - symbol: Tl # 76
    coordinates: [  0.223650776262258,  0.374039400604899,  0.063276311626672 ]
    mass: 204.383300
    reduced_to: 73
  - symbol: Tl # 77
    coordinates: [  0.556984109595591,  0.374039400604899,  0.063276311626672 ]
    mass: 204.383300
    reduced_to: 73
  - symbol: Tl # 78
    coordinates: [  0.890317442928925,  0.374039400604899,  0.063276311626672 ]
    mass: 204.383300
    reduced_to: 73
  - symbol: Tl # 79
    coordinates: [  0.223650776262258,  0.707372733938232,  0.063276311626672 ]
    mass: 204.383300
    reduced_to: 73
  - symbol: Tl # 80
    coordinates: [  0.556984109595591,  0.707372733938232,  0.063276311626672 ]
    mass: 204.383300
    reduced_to: 73
  - symbol: Tl # 81
    coordinates: [  0.890317442928925,  0.707372733938232,  0.063276311626672 ]
    mass: 204.383300
    reduced_to: 73
  - symbol: Tl # 82
    coordinates: [  0.223650776262258,  0.040706067271566,  0.563276311626672 ]
    mass: 204.383300
    reduced_to: 73
  - symbol: Tl # 83
    coordinates: [  0.556984109595591,  0.040706067271566,  0.563276311626672 ]
    mass: 204.383300
    reduced_to: 73
  - symbol: Tl # 84
    coordinates: [  0.890317442928925,  0.040706067271566,  0.563276311626672 ]
    mass: 204.383300
    reduced_to: 73
  - symbol: Tl # 85
    coordinates: [  0.223650776262258,  0.374039400604899,  0.563276311626672 ]
    mass: 204.383300
    reduced_to: 73
  - symbol: Tl # 86
    coordinates: [  0.556984109595591,  0.374039400604899,  0.563276311626672 ]
    mass: 204.383300
    reduced_to: 73
  - symbol: Tl # 87
    coordinates: [  0.890317442928925,  0.374039400604899,  0.563276311626672 ]
    mass: 204.383300
    reduced_to: 73
  - symbol: Tl # 88
    coordinates: [  0.223650776262258,  0.707372733938232,  0.563276311626672 ]
    mass: 204.383300
    reduced_to: 73
  - symbol: Tl # 89
    coordinates: [  0.556984109595591,  0.707372733938232,  0.563276311626672 ]
    mass: 204.383300
    reduced_to: 73
  - symbol: Tl # 90
    coordinates: [  0.890317442928925,  0.707372733938232,  0.563276311626672 ]
    mass: 204.383300
    reduced_to: 73
  - symbol: Tl # 91
    coordinates: [  0.127695703278789,  0.270596661877291,  0.160751225119867 ]
    mass: 204.383300
    reduced_to: 91
  - symbol: Tl # 92
    coordinates: [  0.461029036612122,  0.270596661877291,  0.160751225119867 ]
    mass: 204.383300
    reduced_to: 91
  - symbol: Tl # 93
    coordinates: [  0.794362369945456,  0.270596661877291,  0.160751225119867 ]
    mass: 204.383300
    reduced_to: 91
  - symbol: Tl # 94
    coordinates: [  0.127695703278789,  0.603929995210625,  0.160751225119867 ]
    mass: 204.383300
    reduced_to: 91
  - symbol: Tl # 95
    coordinates: [  0.461029036612122,  0.603929995210625,  0.160751225119867 ]
    mass: 204.383300
    reduced_to: 91
  - symbol: Tl # 96
    coordinates: [  0.794362369945456,  0.603929995210625,  0.160751225119867 ]
    mass: 204.383300
    reduced_to: 91
  - symbol: Tl # 97
    coordinates: [  0.127695703278789,  0.937263328543958,  0.160751225119867 ]
    mass: 204.383300
    reduced_to: 91
  - symbol: Tl # 98
    coordinates: [  0.461029036612122,  0.937263328543958,  0.160751225119867 ]
    mass: 204.383300
    reduced_to: 91
  - symbol: Tl # 99
    coordinates: [  0.794362369945456,  0.937263328543958,  0.160751225119867 ]
    mass: 204.383300
    reduced_to: 91
  - symbol: Tl # 100
    coordinates: [  0.127695703278789,  0.270596661877291,  0.660751225119867 ]
    mass: 204.383300
    reduced_to: 91
  - symbol: Tl # 101
    coordinates: [  0.461029036612122,  0.270596661877291,  0.660751225119867 ]
    mass: 204.383300
    reduced_to: 91
  - symbol: Tl # 102
    coordinates: [  0.794362369945456,  0.270596661877291,  0.660751225119867 ]
    mass: 204.383300
    reduced_to: 91
  - symbol: Tl # 103
    coordinates: [  0.127695703278789,  0.603929995210625,  0.660751225119867 ]
    mass: 204.383300
    reduced_to: 91
  - symbol: Tl # 104
    coordinates: [  0.461029036612122,  0.603929995210625,  0.660751225119867 ]
    mass: 204.383300
    reduced_to: 91
  - symbol: Tl # 105
    coordinates: [  0.794362369945456,  0.603929995210625,  0.660751225119867 ]
    mass: 204.383300
    reduced_to: 91
  - symbol: Tl # 106
    coordinates: [  0.127695703278789,  0.937263328543958,  0.660751225119867 ]
    mass: 204.383300
    reduced_to: 91
  - symbol: Tl # 107
    coordinates: [  0.461029036612122,  0.937263328543958,  0.660751225119867 ]
    mass: 204.383300
    reduced_to: 91
  - symbol: Tl # 108
    coordinates: [  0.794362369945456,  0.937263328543958,  0.660751225119867 ]
    mass: 204.383300
    reduced_to: 91
  - symbol: Tl # 109
    coordinates: [  0.040706067276949,  0.109682557069366,  0.438276311639643 ]
    mass: 204.383300
    reduced_to: 109
  - symbol: Tl # 110
    coordinates: [  0.374039400610283,  0.109682557069366,  0.438276311639643 ]
    mass: 204.383300
    reduced_to: 109
  - symbol: Tl # 111
    coordinates: [  0.707372733943616,  0.109682557069366,  0.438276311639643 ]
    mass: 204.383300
    reduced_to: 109
  - symbol: Tl # 112
    coordinates: [  0.040706067276949,  0.443015890402700,  0.438276311639643 ]
    mass: 204.383300
    reduced_to: 109
  - symbol: Tl # 113
    coordinates: [  0.374039400610283,  0.443015890402700,  0.438276311639643 ]
    mass: 204.383300
    reduced_to: 109
  - symbol: Tl # 114
    coordinates: [  0.707372733943616,  0.443015890402700,  0.438276311639643 ]
    mass: 204.383300
    reduced_to: 109
  - symbol: Tl # 115
    coordinates: [  0.040706067276949,  0.776349223736033,  0.438276311639643 ]
    mass: 204.383300
    reduced_to: 109
  - symbol: Tl # 116
    coordinates: [  0.374039400610283,  0.776349223736033,  0.438276311639643 ]
    mass: 204.383300
    reduced_to: 109
  - symbol: Tl # 117
    coordinates: [  0.707372733943616,  0.776349223736033,  0.438276311639643 ]
    mass: 204.383300
    reduced_to: 109
  - symbol: Tl # 118
    coordinates: [  0.040706067276949,  0.109682557069366,  0.938276311639643 ]
    mass: 204.383300
    reduced_to: 109
  - symbol: Tl # 119
    coordinates: [  0.374039400610283,  0.109682557069366,  0.938276311639643 ]
    mass: 204.383300
    reduced_to: 109
  - symbol: Tl # 120
    coordinates: [  0.707372733943616,  0.109682557069366,  0.938276311639643 ]
    mass: 204.383300
    reduced_to: 109
  - symbol: Tl # 121
    coordinates: [  0.040706067276949,  0.443015890402700,  0.938276311639643 ]
    mass: 204.383300
    reduced_to: 109
  - symbol: Tl # 122
    coordinates: [  0.374039400610283,  0.443015890402700,  0.938276311639643 ]
    mass: 204.383300
    reduced_to: 109
  - symbol: Tl # 123
    coordinates: [  0.707372733943616,  0.443015890402700,  0.938276311639643 ]
    mass: 204.383300
    reduced_to: 109
  - symbol: Tl # 124
    coordinates: [  0.040706067276949,  0.776349223736033,  0.938276311639643 ]
    mass: 204.383300
    reduced_to: 109
  - symbol: Tl # 125
    coordinates: [  0.374039400610283,  0.776349223736033,  0.938276311639643 ]
    mass: 204.383300
    reduced_to: 109
  - symbol: Tl # 126
    coordinates: [  0.707372733943616,  0.776349223736033,  0.938276311639643 ]
    mass: 204.383300
    reduced_to: 109
  - symbol: Tl # 127
    coordinates: [  0.004558085782461,  0.065368292425876,  0.153422221036079 ]
    mass: 204.383300
    reduced_to: 127
  - symbol: Tl # 128
    coordinates: [  0.337891419115794,  0.065368292425876,  0.153422221036079 ]
    mass: 204.383300
    reduced_to: 127
  - symbol: Tl # 129
    coordinates: [  0.671224752449127,  0.065368292425876,  0.153422221036079 ]
    mass: 204.383300
    reduced_to: 127
  - symbol: Tl # 130
    coordinates: [  0.004558085782461,  0.398701625759209,  0.153422221036079 ]
    mass: 204.383300
    reduced_to: 127
  - symbol: Tl # 131
    coordinates: [  0.337891419115794,  0.398701625759209,  0.153422221036079 ]
    mass: 204.383300
    reduced_to: 127
  - symbol: Tl # 132
    coordinates: [  0.671224752449127,  0.398701625759209,  0.153422221036079 ]
    mass: 204.383300
    reduced_to: 127
  - symbol: Tl # 133
    coordinates: [  0.004558085782461,  0.732034959092542,  0.153422221036079 ]
    mass: 204.383300
    reduced_to: 127
  - symbol: Tl # 134
    coordinates: [  0.337891419115794,  0.732034959092542,  0.153422221036079 ]
    mass: 204.383300
    reduced_to: 127
  - symbol: Tl # 135
    coordinates: [  0.671224752449127,  0.732034959092542,  0.153422221036079 ]
    mass: 204.383300
    reduced_to: 127
  - symbol: Tl # 136
    coordinates: [  0.004558085782461,  0.065368292425876,  0.653422221036079 ]
    mass: 204.383300
    reduced_to: 127
  - symbol: Tl # 137