phonopy:
  version: "2.27.0"
  frequency_unit_conversion_factor: 15.633302
  symmetry_tolerance: 1.00000e-03

space_group:
  type: "Pn-3m"
  number: 224
  Hall_symbol: "P 4n 2 3 -1n"

primitive_matrix:
- [  1.000000000000000,  0.000000000000000, -0.000000000000000 ]
- [  0.000000000000000,  1.000000000000000, -0.000000000000000 ]
- [ -0.000000000000000, -0.000000000000000,  1.000000000000000 ]

supercell_matrix:
- [   4,   0,   0 ]
- [   0,   4,   0 ]
- [   0,   0,   4 ]

primitive_cell:
  lattice:
  - [     5.959074965655071,     0.000000000000000,     0.000000000000000 ] # a
  - [    -0.000000000000000,     5.959074965655107,    -0.000000000000009 ] # b
  - [     0.000000000000000,    -0.000000000000010,     5.959074965655063 ] # c
  points:
  - symbol: Zn # 1
    coordinates: [  0.999999999999999,  0.500000000000000,  0.500000000000000 ]
    mass: 65.380000
  - symbol: Zn # 2
    coordinates: [  0.500000000000001,  0.000000000000001,  0.000000000000000 ]
    mass: 65.380000
  - symbol: Zn # 3
    coordinates: [  0.000000000000001,  0.000000000000000,  0.500000000000000 ]
    mass: 65.380000
  - symbol: Zn # 4
    coordinates: [  0.000000000000001,  0.500000000000000,  0.000000000000000 ]
    mass: 65.380000
  - symbol: Zn # 5
    coordinates: [  0.500000000000000,  0.000000000000000,  0.500000000000000 ]
    mass: 65.380000
  - symbol: Zn # 6
    coordinates: [  0.500000000000000,  0.500000000000000,  0.000000000000000 ]
    mass: 65.380000
  - symbol: As # 7
    coordinates: [  0.250000000000000,  0.250000000000001,  0.250000000000001 ]
    mass: 74.921600
  - symbol: As # 8
    coordinates: [  0.750000000000000,  0.250000000000000,  0.750000000000000 ]
    mass: 74.921600
  - symbol: As # 9
    coordinates: [  0.750000000000000,  0.750000000000000,  0.250000000000000 ]
    mass: 74.921600
  - symbol: As # 10
    coordinates: [  0.250000000000000,  0.750000000000000,  0.750000000000000 ]
    mass: 74.921600
  reciprocal_lattice: # without 2pi
  - [     0.167811280402322,     0.000000000000000,    -0.000000000000000 ] # a*
  - [    -0.000000000000000,     0.167811280402321,     0.000000000000000 ] # b*
  - [    -0.000000000000000,     0.000000000000000,     0.167811280402322 ] # c*

unit_cell:
  lattice:
  - [     5.959074965655071,     0.000000000000000,     0.000000000000000 ] # a
  - [    -0.000000000000000,     5.959074965655106,    -0.000000000000009 ] # b
  - [     0.000000000000000,    -0.000000000000010,     5.959074965655063 ] # c
  points:
  - symbol: Zn # 1
    coordinates: [ -0.000000000000001,  0.500000000000000,  0.500000000000000 ]
    mass: 65.380000
    reduced_to: 1
  - symbol: Zn # 2
    coordinates: [  0.500000000000001,  0.000000000000001,  0.000000000000000 ]
    mass: 65.380000
    reduced_to: 2
  - symbol: Zn # 3
    coordinates: [  0.000000000000001,  0.000000000000000,  0.500000000000000 ]
    mass: 65.380000
    reduced_to: 3
  - symbol: Zn # 4
    coordinates: [  0.000000000000001,  0.500000000000000,  0.000000000000000 ]
    mass: 65.380000
    reduced_to: 4
  - symbol: Zn # 5
    coordinates: [  0.500000000000000,  0.000000000000000,  0.500000000000000 ]
    mass: 65.380000
    reduced_to: 5
  - symbol: Zn # 6
    coordinates: [  0.500000000000000,  0.500000000000000,  0.000000000000000 ]
    mass: 65.380000
    reduced_to: 6
  - symbol: As # 7
    coordinates: [  0.250000000000000,  0.250000000000001,  0.250000000000001 ]
    mass: 74.921600
    reduced_to: 7
  - symbol: As # 8
    coordinates: [  0.750000000000000,  0.250000000000000,  0.750000000000000 ]
    mass: 74.921600
    reduced_to: 8
  - symbol: As # 9
    coordinates: [  0.750000000000000,  0.750000000000000,  0.250000000000000 ]
    mass: 74.921600
    reduced_to: 9
  - symbol: As # 10
    coordinates: [  0.250000000000000,  0.750000000000000,  0.750000000000000 ]
    mass: 74.921600
    reduced_to: 10

supercell:
  lattice:
  - [    23.836299862620283,     0.000000000000000,     0.000000000000001 ] # a
  - [    -0.000000000000001,    23.836299862620425,    -0.000000000000034 ] # b
  - [     0.000000000000001,    -0.000000000000039,    23.836299862620251 ] # c
  points:
  - symbol: Zn # 1
    coordinates: [  1.000000000000000,  0.125000000000000,  0.125000000000000 ]
    mass: 65.380000
    reduced_to: 1
  - symbol: Zn # 2
    coordinates: [  0.250000000000000,  0.125000000000000,  0.125000000000000 ]
    mass: 65.380000
    reduced_to: 1
  - symbol: Zn # 3
    coordinates: [  0.500000000000000,  0.125000000000000,  0.125000000000000 ]
    mass: 65.380000
    reduced_to: 1
  - symbol: Zn # 4
    coordinates: [  0.750000000000000,  0.125000000000000,  0.125000000000000 ]
    mass: 65.380000
    reduced_to: 1
  - symbol: Zn # 5
    coordinates: [  1.000000000000000,  0.375000000000000,  0.125000000000000 ]
    mass: 65.380000
    reduced_to: 1
  - symbol: Zn # 6
    coordinates: [  0.250000000000000,  0.375000000000000,  0.125000000000000 ]
    mass: 65.380000
    reduced_to: 1
  - symbol: Zn # 7
    coordinates: [  0.500000000000000,  0.375000000000000,  0.125000000000000 ]
    mass: 65.380000
    reduced_to: 1
  - symbol: Zn # 8
    coordinates: [  0.750000000000000,  0.375000000000000,  0.125000000000000 ]
    mass: 65.380000
    reduced_to: 1
  - symbol: Zn # 9
    coordinates: [  1.000000000000000,  0.625000000000000,  0.125000000000000 ]
    mass: 65.380000
    reduced_to: 1
  - symbol: Zn # 10
    coordinates: [  0.250000000000000,  0.625000000000000,  0.125000000000000 ]
    mass: 65.380000
    reduced_to: 1
  - symbol: Zn # 11
    coordinates: [  0.500000000000000,  0.625000000000000,  0.125000000000000 ]
    mass: 65.380000
    reduced_to: 1
  - symbol: Zn # 12
    coordinates: [  0.750000000000000,  0.625000000000000,  0.125000000000000 ]
    mass: 65.380000
    reduced_to: 1
  - symbol: Zn # 13
    coordinates: [  1.000000000000000,  0.875000000000000,  0.125000000000000 ]
    mass: 65.380000
    reduced_to: 1
  - symbol: Zn # 14
    coordinates: [  0.250000000000000,  0.875000000000000,  0.125000000000000 ]
    mass: 65.380000
    reduced_to: 1
  - symbol: Zn # 15
    coordinates: [  0.500000000000000,  0.875000000000000,  0.125000000000000 ]
    mass: 65.380000
    reduced_to: 1
  - symbol: Zn # 16
    coordinates: [  0.750000000000000,  0.875000000000000,  0.125000000000000 ]
    mass: 65.380000
    reduced_to: 1
  - symbol: Zn # 17
    coordinates: [  1.000000000000000,  0.125000000000000,  0.375000000000000 ]
    mass: 65.380000
    reduced_to: 1
  - symbol: Zn # 18
    coordinates: [  0.250000000000000,  0.125000000000000,  0.375000000000000 ]
    mass: 65.380000
    reduced_to: 1
  - symbol: Zn # 19
    coordinates: [  0.500000000000000,  0.125000000000000,  0.375000000000000 ]
    mass: 65.380000
    reduced_to: 1
  - symbol: Zn # 20
    coordinates: [  0.750000000000000,  0.125000000000000,  0.375000000000000 ]
    mass: 65.380000
    reduced_to: 1
  - symbol: Zn # 21
    coordinates: [  1.000000000000000,  0.375000000000000,  0.375000000000000 ]
    mass: 65.380000
    reduced_to: 1
  - symbol: Zn # 22
    coordinates: [  0.250000000000000,  0.375000000000000,  0.375000000000000 ]
    mass: 65.380000
    reduced_to: 1
  - symbol: Zn # 23
    coordinates: [  0.500000000000000,  0.375000000000000,  0.375000000000000 ]
    mass: 65.380000
    reduced_to: 1
  - symbol: Zn # 24
    coordinates: [  0.750000000000000,  0.375000000000000,  0.375000000000000 ]
    mass: 65.380000
    reduced_to: 1
  - symbol: Zn # 25
    coordinates: [  1.000000000000000,  0.625000000000000,  0.375000000000000 ]
    mass: 65.380000
    reduced_to: 1
  - symbol: Zn # 26
    coordinates: [  0.250000000000000,  0.625000000000000,  0.375000000000000 ]
    mass: 65.380000
    reduced_to: 1
  - symbol: Zn # 27
    coordinates: [  0.500000000000000,  0.625000000000000,  0.375000000000000 ]
    mass: 65.380000
    reduced_to: 1
  - symbol: Zn # 28
    coordinates: [  0.750000000000000,  0.625000000000000,  0.375000000000000 ]
    mass: 65.380000
    reduced_to: 1
  - symbol: Zn # 29
    coordinates: [  1.000000000000000,  0.875000000000000,  0.375000000000000 ]
    mass: 65.380000
    reduced_to: 1
  - symbol: Zn # 30
    coordinates: [  0.250000000000000,  0.875000000000000,  0.375000000000000 ]
    mass: 65.380000
    reduced_to: 1
  - symbol: Zn # 31
    coordinates: [  0.500000000000000,  0.875000000000000,  0.375000000000000 ]
    mass: 65.380000
    reduced_to: 1
  - symbol: Zn # 32
    coordinates: [  0.750000000000000,  0.875000000000000,  0.375000000000000 ]
    mass: 65.380000
    reduced_to: 1
  - symbol: Zn # 33
    coordinates: [  1.000000000000000,  0.125000000000000,  0.625000000000000 ]
    mass: 65.380000
    reduced_to: 1
  - symbol: Zn # 34
    coordinates: [  0.250000000000000,  0.125000000000000,  0.625000000000000 ]
    mass: 65.380000
    reduced_to: 1
  - symbol: Zn # 35
    coordinates: [  0.500000000000000,  0.125000000000000,  0.625000000000000 ]
    mass: 65.380000
    reduced_to: 1
  - symbol: Zn # 36
    coordinates: [  0.750000000000000,  0.125000000000000,  0.625000000000000 ]
    mass: 65.380000
    reduced_to: 1
  - symbol: Zn # 37
    coordinates: [  1.000000000000000,  0.375000000000000,  0.625000000000000 ]
    mass: 65.380000
    reduced_to: 1
  - symbol: Zn # 38
    coordinates: [  0.250000000000000,  0.375000000000000,  0.625000000000000 ]
    mass: 65.380000
    reduced_to: 1
  - symbol: Zn # 39
    coordinates: [  0.500000000000000,  0.375000000000000,  0.625000000000000 ]
    mass: 65.380000
    reduced_to: 1
  - symbol: Zn # 40
    coordinates: [  0.750000000000000,  0.375000000000000,  0.625000000000000 ]
    mass: 65.380000
    reduced_to: 1
  - symbol: Zn # 41
    coordinates: [  1.000000000000000,  0.625000000000000,  0.625000000000000 ]
    mass: 65.380000
    reduced_to: 1
  - symbol: Zn # 42
    coordinates: [  0.250000000000000,  0.625000000000000,  0.625000000000000 ]
    mass: 65.380000
    reduced_to: 1
  - symbol: Zn # 43
    coordinates: [  0.500000000000000,  0.625000000000000,  0.625000000000000 ]
    mass: 65.380000
    reduced_to: 1
  - symbol: Zn # 44
    coordinates: [  0.750000000000000,  0.625000000000000,  0.625000000000000 ]
    mass: 65.380000
    reduced_to: 1
  - symbol: Zn # 45
    coordinates: [  1.000000000000000,  0.875000000000000,  0.625000000000000 ]
    mass: 65.380000
    reduced_to: 1
  - symbol: Zn # 46
    coordinates: [  0.250000000000000,  0.875000000000000,  0.625000000000000 ]
    mass: 65.380000
    reduced_to: 1
  - symbol: Zn # 47
    coordinates: [  0.500000000000000,  0.875000000000000,  0.625000000000000 ]
    mass: 65.380000
    reduced_to: 1
  - symbol: Zn # 48
    coordinates: [  0.750000000000000,  0.875000000000000,  0.625000000000000 ]
    mass: 65.380000
    reduced_to: 1
  - symbol: Zn # 49
    coordinates: [  1.000000000000000,  0.125000000000000,  0.875000000000000 ]
    mass: 65.380000
    reduced_to: 1
  - symbol: Zn # 50
    coordinates: [  0.250000000000000,  0.125000000000000,  0.875000000000000 ]
    mass: 65.380000
    reduced_to: 1
  - symbol: Zn # 51
    coordinates: [  0.500000000000000,  0.125000000000000,  0.875000000000000 ]
    mass: 65.380000
    reduced_to: 1
  - symbol: Zn # 52
    coordinates: [  0.750000000000000,  0.125000000000000,  0.875000000000000 ]
    mass: 65.380000
    reduced_to: 1
  - symbol: Zn # 53
    coordinates: [  1.000000000000000,  0.375000000000000,  0.875000000000000 ]
    mass: 65.380000
    reduced_to: 1
  - symbol: Zn # 54
    coordinates: [  0.250000000000000,  0.375000000000000,  0.875000000000000 ]
    mass: 65.380000
    reduced_to: 1
  - symbol: Zn # 55
    coordinates: [  0.500000000000000,  0.375000000000000,  0.875000000000000 ]
    mass: 65.380000
    reduced_to: 1
  - symbol: Zn # 56
    coordinates: [  0.750000000000000,  0.375000000000000,  0.875000000000000 ]
    mass: 65.380000
    reduced_to: 1
  - symbol: Zn # 57
    coordinates: [  1.000000000000000,  0.625000000000000,  0.875000000000000 ]
    mass: 65.380000
    reduced_to: 1
  - symbol: Zn # 58
    coordinates: [  0.250000000000000,  0.625000000000000,  0.875000000000000 ]
    mass: 65.380000
    reduced_to: 1
  - symbol: Zn # 59
    coordinates: [  0.500000000000000,  0.625000000000000,  0.875000000000000 ]
    mass: 65.380000
    reduced_to: 1
  - symbol: Zn # 60
    coordinates: [  0.750000000000000,  0.625000000000000,  0.875000000000000 ]
    mass: 65.380000
    reduced_to: 1
  - symbol: Zn # 61
    coordinates: [  1.000000000000000,  0.875000000000000,  0.875000000000000 ]
    mass: 65.380000
    reduced_to: 1
  - symbol: Zn # 62
    coordinates: [  0.250000000000000,  0.875000000000000,  0.875000000000000 ]
    mass: 65.380000
    reduced_to: 1
  - symbol: Zn # 63
    coordinates: [  0.500000000000000,  0.875000000000000,  0.875000000000000 ]
    mass: 65.380000
    reduced_to: 1
  - symbol: Zn # 64
    coordinates: [  0.750000000000000,  0.875000000000000,  0.875000000000000 ]
    mass: 65.380000
    reduced_to: 1
  - symbol: Zn # 65
    coordinates: [  0.125000000000000,  0.000000000000000,  0.000000000000000 ]
    mass: 65.380000
    reduced_to: 65
  - symbol: Zn # 66
    coordinates: [  0.375000000000000,  0.000000000000000,  0.000000000000000 ]
    mass: 65.380000
    reduced_to: 65
  - symbol: Zn # 67
    coordinates: [  0.625000000000000,  0.000000000000000,  0.000000000000000 ]
    mass: 65.380000
    reduced_to: 65
  - symbol: Zn # 68
    coordinates: [  0.875000000000000,  0.000000000000000,  0.000000000000000 ]
    mass: 65.380000
    reduced_to: 65
  - symbol: Zn # 69
    coordinates: [  0.125000000000000,  0.250000000000000,  0.000000000000000 ]
    mass: 65.380000
    reduced_to: 65
  - symbol: Zn # 70
    coordinates: [  0.375000000000000,  0.250000000000000,  0.000000000000000 ]
    mass: 65.380000
    reduced_to: 65
  - symbol: Zn # 71
    coordinates: [  0.625000000000000,  0.250000000000000,  0.000000000000000 ]
    mass: 65.380000
    reduced_to: 65
  - symbol: Zn # 72
    coordinates: [  0.875000000000000,  0.250000000000000,  0.000000000000000 ]
    mass: 65.380000
    reduced_to: 65
  - symbol: Zn # 73
    coordinates: [  0.125000000000000,  0.500000000000000,  0.000000000000000 ]
    mass: 65.380000
    reduced_to: 65
  - symbol: Zn # 74
    coordinates: [  0.375000000000000,  0.500000000000000,  0.000000000000000 ]
    mass: 65.380000
    reduced_to: 65
  - symbol: Zn # 75
    coordinates: [  0.625000000000000,  0.500000000000000,  0.000000000000000 ]
    mass: 65.380000
    reduced_to: 65
  - symbol: Zn # 76
    coordinates: [  0.875000000000000,  0.500000000000000,  0.000000000000000 ]
    mass: 65.380000
    reduced_to: 65
  - symbol: Zn # 77
    coordinates: [  0.125000000000000,  0.750000000000000,  0.000000000000000 ]
    mass: 65.380000
    reduced_to: 65
  - symbol: Zn # 78
    coordinates: [  0.375000000000000,  0.750000000000000,  0.000000000000000 ]
    mass: 65.380000
    reduced_to: 65
  - symbol: Zn # 79
    coordinates: [  0.625000000000000,  0.750000000000000,  0.000000000000000 ]
    mass: 65.380000
    reduced_to: 65
  - symbol: Zn # 80
    coordinates: [  0.875000000000000,  0.750000000000000,  0.000000000000000 ]
    mass: 65.380000
    reduced_to: 65
  - symbol: Zn # 81
    coordinates: [  0.125000000000000,  0.000000000000000,  0.250000000000000 ]
    mass: 65.380000
    reduced_to: 65
  - symbol: Zn # 82
    coordinates: [  0.375000000000000,  0.000000000000000,  0.250000000000000 ]
    mass: 65.380000
    reduced_to: 65
  - symbol: Zn # 83
    coordinates: [  0.625000000000000,  0.000000000000000,  0.250000000000000 ]
    mass: 65.380000
    reduced_to: 65
  - symbol: Zn # 84
    coordinates: [  0.875000000000000,  0.000000000000000,  0.250000000000000 ]
    mass: 65.380000
    reduced_to: 65
  - symbol: Zn # 85
    coordinates: [  0.125000000000000,  0.250000000000000,  0.250000000000000 ]
    mass: 65.380000
    reduced_to: 65
  - symbol: Zn # 86
    coordinates: [  0.375000000000000,  0.250000000000000,  0.250000000000000 ]
    mass: 65.380000
    reduced_to: 65
  - symbol: Zn # 87
    coordinates: [  0.625000000000000,  0.250000000000000,  0.250000000000000 ]
    mass: 65.380000
    reduced_to: 65
  - symbol: Zn # 88
    coordinates: [  0.875000000000000,  0.250000000000000,  0.250000000000000 ]
    mass: 65.380000
    reduced_to: 65
  - symbol: Zn # 89
    coordinates: [  0.125000000000000,  0.500000000000000,  0.250000000000000 ]
    mass: 65.380000
    reduced_to: 65
  - symbol: Zn # 90
    coordinates: [  0.375000000000000,  0.500000000000000,  0.250000000000000 ]
    mass: 65.380000
    reduced_to: 65
  - symbol: Zn # 91
    coordinates: [  0.625000000000000,  0.500000000000000,  0.250000000000000 ]
    mass: 65.380000
    reduced_to: 65
  - symbol: Zn # 92
    coordinates: [  0.875000000000000,  0.500000000000000,  0.250000000000000 ]
    mass: 65.380000
    reduced_to: 65
  - symbol: Zn # 93
    coordinates: [  0.125000000000000,  0.750000000000000,  0.250000000000000 ]
    mass: 65.380000
    reduced_to: 65
  - symbol: Zn # 94
    coordinates: [  0.375000000000000,  0.750000000000000,  0.250000000000000 ]
    mass: 65.380000
    reduced_to: 65
  - symbol: Zn # 95
    coordinates: [  0.625000000000000,  0.750000000000000,  0.250000000000000 ]
    mass: 65.380000
    reduced_to: 65
  - symbol: Zn # 96
    coordinates: [  0.875000000000000,  0.750000000000000,  0.250000000000000 ]
    mass: 65.380000
    reduced_to: 65
  - symbol: Zn # 97
    coordinates: [  0.125000000000000,  0.000000000000000,  0.500000000000000 ]
    mass: 65.380000
    reduced_to: 65
  - symbol: Zn # 98
    coordinates: [  0.375000000000000,  0.000000000000000,  0.500000000000000 ]
    mass: 65.380000
    reduced_to: 65
  - symbol: Zn # 99
    coordinates: [  0.625000000000000,  0.000000000000000,  0.500000000000000 ]
    mass: 65.380000
    reduced_to: 65
  - symbol: Zn # 100
    coordinates: [  0.875000000000000,  0.000000000000000,  0.500000000000000 ]
    mass: 65.380000
    reduced_to: 65
  - symbol: Zn # 101
    coordinates: [  0.125000000000000,  0.250000000000000,  0.500000000000000 ]
    mass: 65.380000
    reduced_to: 65
  - symbol: Zn # 102
    coordinates: [  0.375000000000000,  0.250000000000000,  0.500000000000000 ]
    mass: 65.380000
    reduced_to: 65
  - symbol: Zn # 103
    coordinates: [  0.625000000000000,  0.250000000000000,  0.500000000000000 ]
    mass: 65.380000
    reduced_to: 65
  - symbol: Zn # 104
    coordinates: [  0.875000000000000,  0.250000000000000,  0.500000000000000 ]
    mass: 65.380000
    reduced_to: 65
  - symbol: Zn # 105
    coordinates: [  0.125000000000000,  0.500000000000000,  0.500000000000000 ]
    mass: 65.380000
    reduced_to: 65
  - symbol: Zn # 106
    coordinates: [  0.375000000000000,  0.500000000000000,  0.500000000000000 ]
    mass: 65.380000
    reduced_to: 65
  - symbol: Zn # 107
    coordinates: [  0.625000000000000,  0.500000000000000,  0.500000000000000 ]
    mass: 65.380000
    reduced_to: 65
  - symbol: Zn # 108
    coordinates: [  0.875000000000000,  0.500000000000000,  0.500000000000000 ]
    mass: 65.380000
    reduced_to: 65
  - symbol: Zn # 109
    coordinates: [  0.125000000000000,  0.750000000000000,  0.500000000000000 ]
    mass: 65.380000
    reduced_to: 65
  - symbol: Zn # 110
    coordinates: [  0.375000000000000,  0.750000000000000,  0.500000000000000 ]
    mass: 65.380000
    reduced_to: 65
  - symbol: Zn # 111
    coordinates: [  0.625000000000000,  0.750000000000000,  0.500000000000000 ]
    mass: 65.380000
    reduced_to: 65
  - symbol: Zn # 112
    coordinates: [  0.875000000000000,  0.750000000000000,  0.500000000000000 ]
    mass: 65.380000
    reduced_to: 65
  - symbol: Zn # 113
    coordinates: [  0.125000000000000,  0.000000000000000,  0.750000000000000 ]
    mass: 65.380000
    reduced_to: 65
  - symbol: Zn # 114
    coordinates: [  0.375000000000000,  0.000000000000000,  0.750000000000000 ]
    mass: 65.380000
    reduced_to: 65
  - symbol: Zn # 115
    coordinates: [  0.625000000000000,  0.000000000000000,  0.750000000000000 ]
    mass: 65.380000
    reduced_to: 65
  - symbol: Zn # 116
    coordinates: [  0.875000000000000,  0.000000000000000,  0.750000000000000 ]
    mass: 65.380000
    reduced_to: 65
  - symbol: Zn # 117
    coordinates: [  0.125000000000000,  0.250000000000000,  0.750000000000000 ]
    mass: 65.380000
    reduced_to: 65
  - symbol: Zn # 118
    coordinates: [  0.375000000000000,  0.250000000000000,  0.750000000000000 ]
    mass: 65.380000
    reduced_to: 65
  - symbol: Zn # 119
    coordinates: [  0.625000000000000,  0.250000000000000,  0.750000000000000 ]
    mass: 65.380000
    reduced_to: 65
  - symbol: Zn # 120
    coordinates: [  0.875000000000000,  0.250000000000000,  0.750000000000000 ]
    mass: 65.380000
    reduced_to: 65
  - symbol: Zn # 121
    coordinates: [  0.125000000000000,  0.500000000000000,  0.750000000000000 ]
    mass: 65.380000
    reduced_to: 65
  - symbol: Zn # 122
    coordinates: [  0.375000000000000,  0.500000000000000,  0.750000000000000 ]
    mass: 65.380000
    reduced_to: 65
  - symbol: Zn # 123
    coordinates: [  0.625000000000000,  0.500000000000000,  0.750000000000000 ]
    mass: 65.380000
    reduced_to: 65
  - symbol: Zn # 124
    coordinates: [  0.875000000000000,  0.500000000000000,  0.750000000000000 ]
    mass: 65.380000
    reduced_to: 65
  - symbol: Zn # 125
    coordinates: [  0.125000000000000,  0.750000000000000,  0.750000000000000 ]
    mass: 65.380000
    reduced_to: 65
  - symbol: Zn # 126
    coordinates: [  0.375000000000000,  0.750000000000000,  0.750000000000000 ]
    mass: 65.380000
    reduced_to: 65
  - symbol: Zn # 127
    coordinates: [  0.625000000000000,  0.750000000000000,  0.750000000000000 ]
    mass: 65.380000
    reduced_to: 65
  - symbol: Zn # 128
    coordinates: [  0.875000000000000,  0.750000000000000,  0.750000000000000 ]
    mass: 65.380000
    reduced_to: 65
  - symbol: Zn # 129
    coordinates: [  0.000000000000000,  0.000000000000000,  0.125000000000000 ]
    mass: 65.380000
    reduced_to: 129
  - symbol: Zn # 130
    coordinates: [  0.250000000000000,  0.000000000000000,  0.125000000000000 ]
    mass: 65.380000
    reduced_to: 129
  - symbol: Zn # 131
    coordinates: [  0.500000000000000,  0.000000000000000,  0.125000000000000 ]
    mass: 65.380000
    reduced_to: 129
  - symbol: Zn # 132
    coordinates: [  0.750000000000000,  0.000000000000000,  0.125000000000000 ]
    mass: 65.380000
    reduced_to: 129
  - symbol: Zn # 133
    coordinates: [  0.000000000000000,  0.250000000000000,  0.125000000000000 ]
    mass: 65.380000
    reduced_to: 129
  - symbol: Zn # 134
    coordinates: [  0.250000000000000,  0.250000000000000,  0.125000000000000 ]
    mass: 65.380000
    reduced_to: 129
  - symbol: Zn # 135
    coordinates: [  0.500000000000000,  0.250000000000000,  0.125000000000000 ]
    mass: 65.380000
    reduced_to: 129
  - symbol: Zn # 136
    coordinates: [  0.750000000000000,  0.250000000000000,  0.125000000000000 ]
    mass: 65.380000
    reduced_to: 129
  - symbol: Zn # 137
    coordinates: [  0.000000000000000,  0.500000000000000,  0.125000000000000 ]
    mass: 65.380000
    reduced_to: 129
  - symbol: Zn # 138
    coordinates: [  0.250000000000000,  0.500000000000000,  0.125000000000000 ]
    mass: 65.380000
    reduced_to: 129
  - symbol: Zn # 139
    coordinates: [  0.500000000000000,  0.500000000000000,  0.125000000000000 ]
    mass: 65.380000
    reduced_to: 129
  - symbol: Zn # 140
    coordinates: [  0.750000000000000,  0.500000000000000,  0.125000000000000 ]
    mass: 65.380000
    reduced_to: 129
  - symbol: Zn # 141
    coordinates: [  0.000000000000000,  0.750000000000000,  0.125000000000000 ]
    mass: 65.380000
    reduced_to: 129
  - symbol: Zn # 142
    coordinates: [  0.250000000000000,  0.750000000000000,  0.125000000000000 ]
    mass: 65.380000
    reduced_to: 129
  - symbol: Zn # 143
    coordinates: [  0.500000000000000,  0.750000000000000,  0.125000000000000 ]
    mass: 65.380000
    reduced_to: 129
  - symbol: Zn # 144
    coordinates: [  0.750000000000000,  0.750000000000000,  0.125000000000000 ]
    mass: 65.380000
    reduced_to: 129
  - symbol: Zn # 145
    coordinates: [  0.000000000000000,  0.000000000000000,  0.375000000000000 ]
    mass: 65.380000
    reduced_to: 129
  - symbol: Zn # 146
    coordinates: [  0.250000000000000,  0.000000000000000,  0.375000000000000 ]
    mass: 65.380000
    reduced_to: 129
  - symbol: Zn # 147
    coordinates: [  0.500000000000000,  0.000000000000000,  0.375000000000000 ]
    mass: 65.380000
    reduced_to: 129
  - symbol: Zn # 148
    coordinates: [  0.750000000000000,  0.000000000000000,  0.375000000000000 ]
    mass: 65.380000
    reduced_to: 129
  - symbol: Zn # 149
    coordinates: [  0.000000000000000,  0.250000000000000,  0.375000000000000 ]
    mass: 65.380000
    reduced_to: 129
  - symbol: Zn # 150
    coordinates: [  0.250000000000000,  0.250000000000000,  0.375000000000000 ]
    mass: 65.380000
    reduced_to: 129
  - symbol: Zn # 151
    coordinates: [  0.500000000000000,  0.250000000000000,  0.375000000000000 ]
    mass: 65.380000
    reduced_to: 129
  - symbol: Zn # 152
    coordinates: [  0.750000000000000,  0.250000000000000,  0.375000000000000 ]
    mass: 65.380000
    reduced_to: 129
  - symbol: Zn # 153
    coordinates: [  0.000000000000000,  0.500000000000000,  0.375000000000000 ]
    mass: 65.380000
    reduced_to: 129
  - symbol: Zn # 154
    coordinates: [  0.250000000000000,  0.500000000000000,  0.375000000000000 ]
    mass: 65.380000
    reduced_to: 129
  - symbol: Zn # 155
    coordinates: [  0.500000000000000,  0.500000000000000,  0.375000000000000 ]
    mass: 65.380000
    reduced_to: 129
  - symbol: Zn # 156
    coordinates: [  0.750000000000000,  0.500000000000000,  0.375000000000000 ]
    mass: 65.380000
    reduced_to: 129
  - symbol: Zn # 157
    coordinates: [  0.000000000000000,  0.750000000000000,  0.375000000000000 ]
    mass: 65.380000
    reduced_to: 129
  - symbol: Zn # 158
    coordinates: [  0.250000000000000,  0.750000000000000,  0.375000000000000 ]
    mass: 65.380000
    reduced_to: 129
  - symbol: Zn # 159
    coordinates: [  0.500000000000000,  0.750000000000000,  0.375000000000000 ]
    mass: 65.380000
    reduced_to: 129
  - symbol: Zn # 160
    coordinates: [  0.750000000000000,  0.750000000000000,  0.375000000000000 ]
    mass: 65.380000
    reduced_to: 129
  - symbol: Zn # 161
    coordinates: [  0.000000000000000,  0.000000000000000,  0.625000000000000 ]
    mass: 65.380000
    reduced_to: 129
  - symbol: Zn # 162
    coordinates: [  0.250000000000000,  0.000000000000000,  0.625000000000000 ]
    mass: 65.380000
    reduced_to: 129
  - symbol: Zn # 163
    coordinates: [  0.500000000000000,  0.000000000000000,  0.625000000000000 ]
    mass: 65.380000
    reduced_to: 129
  - symbol: Zn # 164
    coordinates: [  0.750000000000000,  0.000000000000000,  0.625000000000000 ]
    mass: 65.380000
    reduced_to: 129
  - symbol: Zn # 165
    coordinates: [  0.000000000000000,  0.250000000000000,  0.625000000000000 ]
    mass: 65.380000
    reduced_to: 129
  - symbol: Zn # 166
    coordinates: [  0.250000000000000,  0.250000000000000,  0.625000000000000 ]
    mass: 65.380000
    reduced_to: 129
  - symbol: Zn # 167
    coordinates: [  0.500000000000000,  0.250000000000000,  0.625000000000000 ]
    mass: 65.380000
    reduced_to: 129
  - symbol: Zn # 168
    coordinates: [  0.750000000000000,  0.250000000000000,  0.625000000000000 ]
    mass: 65.380000
    reduced_to: 129
  - symbol: Zn # 169
    coordinates: [  0.000000000000000,  0.500000000000000,  0.625000000000000 ]
    mass: 65.380000
    reduced_to: 129
  - symbol: Zn # 170
    coordinates: [  0.250000000000000,  0.500000000000000,  0.625000000000000 ]
    mass: 65.380000
    reduced_to: 129
  - symbol: Zn # 171
    coordinates: [  0.500000000000000,  0.500000000000000,  0.625000000000000 ]
    mass: 65.380000
    reduced_to: 129
  - symbol: Zn # 172
    coordinates: [  0.750000000000000,  0.500000000000000,  0.625000000000000 ]
    mass: 65.380000
    reduced_to: 129
  - symbol: Zn # 173
    coordinates: [  0.000000000000000,  0.750000000000000,  0.625000000000000 ]
    mass: 65.380000
    reduced_to: 129
  - symbol: Zn # 174
    coordinates: [  0.250000000000000,  0.750000000000000,  0.625000000000000 ]
    mass: 65.380000
    reduced_to: 129
  - symbol: Zn # 175
    coordinates: [  0.500000000000000,  0.750000000000000,  0.625000000000000 ]
    mass: 65.380000
    reduced_to: 129
  - symbol: Zn # 176
    coordinates: [  0.750000000000000,  0.750000000000000,  0.625000000000000 ]
    mass: 65.380000
    reduced_to: 129
  - symbol: Zn # 177
    coordinates: [  0.000000000000000,  0.000000000000000,  0.875000000000000 ]
    mass: 65.380000
    reduced_to: 129
  - symbol: Zn # 178
    coordinates: [  0.250000000000000,  0.000000000000000,  0.875000000000000 ]
    mass: 65.380000
    reduced_to: 129
  - symbol: Zn # 179
    coordinates: [  0.500000000000000,  0.000000000000000,  0.875000000000000 ]
    mass: 65.380000
    reduced_to: 129
  - symbol: Zn # 180
    coordinates: [  0.750000000000000,  0.000000000000000,  0.875000000000000 ]
    mass: 65.380000
    reduced_to: 129
  - symbol: Zn # 181
    coordinates: [  0.000000000000000,  0.250000000000000,  0.875000000000000 ]
    mass: 65.380000
    reduced_to: 129
  - symbol: Zn # 182
    coordinates: [  0.250000000000000,  0.250000000000000,  0.875000000000000 ]
    mass: 65.380000
    reduced_to: 129
  - symbol: Zn # 183
    coordinates: [  0.500000000000000,  0.250000000000000,  0.875000000000000 ]
    mass: 65.380000
    reduced_to: 129
  - symbol: Zn # 184
    coordinates: [  0.750000000000000,  0.250000000000000,  0.875000000000000 ]
    mass: 65.380000
    reduced_to: 129
  - symbol: Zn # 185
    coordinates: [  0.000000000000000,  0.500000000000000,  0.875000000000000 ]
    mass: 65.380000
    reduced_to: 129
  - symbol: Zn # 186