phonopy:
  version: "2.21.0"
  frequency_unit_conversion_factor: 15.633302
  symmetry_tolerance: 1.00000e-04

space_group:
  type: "P2_12_12_1"
  number: 19
  Hall_symbol: "P 2ac 2ab"

primitive_matrix:
- [  1.000000000000000,  0.000000000000000,  0.000000000000000 ]
- [  0.000000000000000,  1.000000000000000,  0.000000000000000 ]
- [  0.000000000000000, -0.000000000000000,  1.000000000000000 ]

supercell_matrix:
- [   5,   0,   0 ]
- [   0,   3,   0 ]
- [   0,   0,   3 ]

primitive_cell:
  lattice:
  - [     4.531038165316076,     0.000000000000000,     0.000000000000000 ] # a
  - [    -0.000000000000000,     7.078823489183723,     0.000000000000000 ] # b
  - [     0.000000000000000,     0.000000000000000,     7.682931018022292 ] # c
  points:
  - symbol: Ag # 1
    coordinates: [  0.018528662525041,  0.232717544313045,  0.877029423957003 ]
    mass: 107.868200
  - symbol: Ag # 2
    coordinates: [  0.689749764414922,  0.880506739083428,  0.945110252330523 ]
    mass: 107.868200
  - symbol: Ag # 3
    coordinates: [  0.481471337474959,  0.767282455686955,  0.377029423957003 ]
    mass: 107.868200
  - symbol: Ag # 4
    coordinates: [  0.189749764414922,  0.619493260916572,  0.054889747669478 ]
    mass: 107.868200
  - symbol: Ag # 5
    coordinates: [  0.810250235585078,  0.119493260916572,  0.445110252330523 ]
    mass: 107.868200
  - symbol: Ag # 6
    coordinates: [  0.981471337474959,  0.732717544313045,  0.622970576042997 ]
    mass: 107.868200
  - symbol: Ag # 7
    coordinates: [  0.310250235585078,  0.380506739083428,  0.554889747669478 ]
    mass: 107.868200
  - symbol: Ag # 8
    coordinates: [  0.518528662525041,  0.267282455686955,  0.122970576042997 ]
    mass: 107.868200
  - symbol: Se # 9
    coordinates: [  0.880132563902812,  0.493248525687883,  0.335682711034066 ]
    mass: 78.960000
  - symbol: Se # 10
    coordinates: [  0.119867436097188,  0.993248525687883,  0.164317288965934 ]
    mass: 78.960000
  - symbol: Se # 11
    coordinates: [  0.380132563902812,  0.006751474312117,  0.664317288965934 ]
    mass: 78.960000
  - symbol: Se # 12
    coordinates: [  0.619867436097188,  0.506751474312117,  0.835682711034066 ]
    mass: 78.960000
  reciprocal_lattice: # without 2pi
  - [     0.220699972835087,     0.000000000000000,     0.000000000000000 ] # a*
  - [     0.000000000000000,     0.141266412635938,     0.000000000000000 ] # b*
  - [    -0.000000000000000,    -0.000000000000000,     0.130158659195852 ] # c*

unit_cell:
  lattice:
  - [     4.531038165316076,     0.000000000000000,     0.000000000000000 ] # a
  - [    -0.000000000000000,     7.078823489183723,     0.000000000000000 ] # b
  - [     0.000000000000000,     0.000000000000000,     7.682931018022294 ] # c
  points:
  - symbol: Ag # 1
    coordinates: [  0.018528662525041,  0.232717544313045,  0.877029423957003 ]
    mass: 107.868200
    reduced_to: 1
  - symbol: Ag # 2
    coordinates: [  0.689749764414922,  0.880506739083428,  0.945110252330523 ]
    mass: 107.868200
    reduced_to: 2
  - symbol: Ag # 3
    coordinates: [  0.481471337474959,  0.767282455686955,  0.377029423957003 ]
    mass: 107.868200
    reduced_to: 3
  - symbol: Ag # 4
    coordinates: [  0.189749764414922,  0.619493260916572,  0.054889747669477 ]
    mass: 107.868200
    reduced_to: 4
  - symbol: Ag # 5
    coordinates: [  0.810250235585078,  0.119493260916572,  0.445110252330522 ]
    mass: 107.868200
    reduced_to: 5
  - symbol: Ag # 6
    coordinates: [  0.981471337474959,  0.732717544313045,  0.622970576042997 ]
    mass: 107.868200
    reduced_to: 6
  - symbol: Ag # 7
    coordinates: [  0.310250235585078,  0.380506739083428,  0.554889747669477 ]
    mass: 107.868200
    reduced_to: 7
  - symbol: Ag # 8
    coordinates: [  0.518528662525041,  0.267282455686955,  0.122970576042997 ]
    mass: 107.868200
    reduced_to: 8
  - symbol: Se # 9
    coordinates: [  0.880132563902812,  0.493248525687884,  0.335682711034066 ]
    mass: 78.960000
    reduced_to: 9
  - symbol: Se # 10
    coordinates: [  0.119867436097188,  0.993248525687883,  0.164317288965934 ]
    mass: 78.960000
    reduced_to: 10
  - symbol: Se # 11
    coordinates: [  0.380132563902812,  0.006751474312117,  0.664317288965934 ]
    mass: 78.960000
    reduced_to: 11
  - symbol: Se # 12
    coordinates: [  0.619867436097188,  0.506751474312117,  0.835682711034066 ]
    mass: 78.960000
    reduced_to: 12

supercell:
  lattice:
  - [    22.655190826580380,     0.000000000000000,     0.000000000000001 ] # a
  - [    -0.000000000000001,    21.236470467551168,     0.000000000000001 ] # b
  - [     0.000000000000000,     0.000000000000000,    23.048793054066881 ] # c
  points:
  - symbol: Ag # 1
    coordinates: [  0.003705732505008,  0.077572514771015,  0.292343141319001 ]
    mass: 107.868200
    reduced_to: 1
  - symbol: Ag # 2
    coordinates: [  0.203705732505008,  0.077572514771015,  0.292343141319001 ]
    mass: 107.868200
    reduced_to: 1
  - symbol: Ag # 3
    coordinates: [  0.403705732505008,  0.077572514771015,  0.292343141319001 ]
    mass: 107.868200
    reduced_to: 1
  - symbol: Ag # 4
    coordinates: [  0.603705732505008,  0.077572514771015,  0.292343141319001 ]
    mass: 107.868200
    reduced_to: 1
  - symbol: Ag # 5
    coordinates: [  0.803705732505008,  0.077572514771015,  0.292343141319001 ]
    mass: 107.868200
    reduced_to: 1
  - symbol: Ag # 6
    coordinates: [  0.003705732505008,  0.410905848104348,  0.292343141319001 ]
    mass: 107.868200
    reduced_to: 1
  - symbol: Ag # 7
    coordinates: [  0.203705732505008,  0.410905848104348,  0.292343141319001 ]
    mass: 107.868200
    reduced_to: 1
  - symbol: Ag # 8
    coordinates: [  0.403705732505008,  0.410905848104348,  0.292343141319001 ]
    mass: 107.868200
    reduced_to: 1
  - symbol: Ag # 9
    coordinates: [  0.603705732505008,  0.410905848104348,  0.292343141319001 ]
    mass: 107.868200
    reduced_to: 1
  - symbol: Ag # 10
    coordinates: [  0.803705732505008,  0.410905848104348,  0.292343141319001 ]
    mass: 107.868200
    reduced_to: 1
  - symbol: Ag # 11
    coordinates: [  0.003705732505008,  0.744239181437682,  0.292343141319001 ]
    mass: 107.868200
    reduced_to: 1
  - symbol: Ag # 12
    coordinates: [  0.203705732505008,  0.744239181437682,  0.292343141319001 ]
    mass: 107.868200
    reduced_to: 1
  - symbol: Ag # 13
    coordinates: [  0.403705732505008,  0.744239181437682,  0.292343141319001 ]
    mass: 107.868200
    reduced_to: 1
  - symbol: Ag # 14
    coordinates: [  0.603705732505008,  0.744239181437682,  0.292343141319001 ]
    mass: 107.868200
    reduced_to: 1
  - symbol: Ag # 15
    coordinates: [  0.803705732505008,  0.744239181437682,  0.292343141319001 ]
    mass: 107.868200
    reduced_to: 1
  - symbol: Ag # 16
    coordinates: [  0.003705732505008,  0.077572514771015,  0.625676474652334 ]
    mass: 107.868200
    reduced_to: 1
  - symbol: Ag # 17
    coordinates: [  0.203705732505008,  0.077572514771015,  0.625676474652334 ]
    mass: 107.868200
    reduced_to: 1
  - symbol: Ag # 18
    coordinates: [  0.403705732505008,  0.077572514771015,  0.625676474652334 ]
    mass: 107.868200
    reduced_to: 1
  - symbol: Ag # 19
    coordinates: [  0.603705732505008,  0.077572514771015,  0.625676474652334 ]
    mass: 107.868200
    reduced_to: 1
  - symbol: Ag # 20
    coordinates: [  0.803705732505008,  0.077572514771015,  0.625676474652334 ]
    mass: 107.868200
    reduced_to: 1
  - symbol: Ag # 21
    coordinates: [  0.003705732505008,  0.410905848104348,  0.625676474652334 ]
    mass: 107.868200
    reduced_to: 1
  - symbol: Ag # 22
    coordinates: [  0.203705732505008,  0.410905848104348,  0.625676474652334 ]
    mass: 107.868200
    reduced_to: 1
  - symbol: Ag # 23
    coordinates: [  0.403705732505008,  0.410905848104348,  0.625676474652334 ]
    mass: 107.868200
    reduced_to: 1
  - symbol: Ag # 24
    coordinates: [  0.603705732505008,  0.410905848104348,  0.625676474652334 ]
    mass: 107.868200
    reduced_to: 1
  - symbol: Ag # 25
    coordinates: [  0.803705732505008,  0.410905848104348,  0.625676474652334 ]
    mass: 107.868200
    reduced_to: 1
  - symbol: Ag # 26
    coordinates: [  0.003705732505008,  0.744239181437682,  0.625676474652334 ]
    mass: 107.868200
    reduced_to: 1
  - symbol: Ag # 27
    coordinates: [  0.203705732505008,  0.744239181437682,  0.625676474652334 ]
    mass: 107.868200
    reduced_to: 1
  - symbol: Ag # 28
    coordinates: [  0.403705732505008,  0.744239181437682,  0.625676474652334 ]
    mass: 107.868200
    reduced_to: 1
  - symbol: Ag # 29
    coordinates: [  0.603705732505008,  0.744239181437682,  0.625676474652334 ]
    mass: 107.868200
    reduced_to: 1
  - symbol: Ag # 30
    coordinates: [  0.803705732505008,  0.744239181437682,  0.625676474652334 ]
    mass: 107.868200
    reduced_to: 1
  - symbol: Ag # 31
    coordinates: [  0.003705732505008,  0.077572514771015,  0.959009807985668 ]
    mass: 107.868200
    reduced_to: 1
  - symbol: Ag # 32
    coordinates: [  0.203705732505008,  0.077572514771015,  0.959009807985668 ]
    mass: 107.868200
    reduced_to: 1
  - symbol: Ag # 33
    coordinates: [  0.403705732505008,  0.077572514771015,  0.959009807985668 ]
    mass: 107.868200
    reduced_to: 1
  - symbol: Ag # 34
    coordinates: [  0.603705732505008,  0.077572514771015,  0.959009807985668 ]
    mass: 107.868200
    reduced_to: 1
  - symbol: Ag # 35
    coordinates: [  0.803705732505008,  0.077572514771015,  0.959009807985668 ]
    mass: 107.868200
    reduced_to: 1
  - symbol: Ag # 36
    coordinates: [  0.003705732505008,  0.410905848104348,  0.959009807985668 ]
    mass: 107.868200
    reduced_to: 1
  - symbol: Ag # 37
    coordinates: [  0.203705732505008,  0.410905848104348,  0.959009807985668 ]
    mass: 107.868200
    reduced_to: 1
  - symbol: Ag # 38
    coordinates: [  0.403705732505008,  0.410905848104348,  0.959009807985668 ]
    mass: 107.868200
    reduced_to: 1
  - symbol: Ag # 39
    coordinates: [  0.603705732505008,  0.410905848104348,  0.959009807985668 ]
    mass: 107.868200
    reduced_to: 1
  - symbol: Ag # 40
    coordinates: [  0.803705732505008,  0.410905848104348,  0.959009807985668 ]
    mass: 107.868200
    reduced_to: 1
  - symbol: Ag # 41
    coordinates: [  0.003705732505008,  0.744239181437682,  0.959009807985668 ]
    mass: 107.868200
    reduced_to: 1
  - symbol: Ag # 42
    coordinates: [  0.203705732505008,  0.744239181437682,  0.959009807985668 ]
    mass: 107.868200
    reduced_to: 1
  - symbol: Ag # 43
    coordinates: [  0.403705732505008,  0.744239181437682,  0.959009807985668 ]
    mass: 107.868200
    reduced_to: 1
  - symbol: Ag # 44
    coordinates: [  0.603705732505008,  0.744239181437682,  0.959009807985668 ]
    mass: 107.868200
    reduced_to: 1
  - symbol: Ag # 45
    coordinates: [  0.803705732505008,  0.744239181437682,  0.959009807985668 ]
    mass: 107.868200
    reduced_to: 1
  - symbol: Ag # 46
    coordinates: [  0.137949952882984,  0.293502246361143,  0.315036750776841 ]
    mass: 107.868200
    reduced_to: 46
  - symbol: Ag # 47
    coordinates: [  0.337949952882984,  0.293502246361143,  0.315036750776841 ]
    mass: 107.868200
    reduced_to: 46
  - symbol: Ag # 48
    coordinates: [  0.537949952882985,  0.293502246361143,  0.315036750776841 ]
    mass: 107.868200
    reduced_to: 46
  - symbol: Ag # 49
    coordinates: [  0.737949952882984,  0.293502246361143,  0.315036750776841 ]
    mass: 107.868200
    reduced_to: 46
  - symbol: Ag # 50
    coordinates: [  0.937949952882985,  0.293502246361143,  0.315036750776841 ]
    mass: 107.868200
    reduced_to: 46
  - symbol: Ag # 51
    coordinates: [  0.137949952882984,  0.626835579694476,  0.315036750776841 ]
    mass: 107.868200
    reduced_to: 46
  - symbol: Ag # 52
    coordinates: [  0.337949952882984,  0.626835579694476,  0.315036750776841 ]
    mass: 107.868200
    reduced_to: 46
  - symbol: Ag # 53
    coordinates: [  0.537949952882985,  0.626835579694476,  0.315036750776841 ]
    mass: 107.868200
    reduced_to: 46
  - symbol: Ag # 54
    coordinates: [  0.737949952882984,  0.626835579694476,  0.315036750776841 ]
    mass: 107.868200
    reduced_to: 46
  - symbol: Ag # 55
    coordinates: [  0.937949952882985,  0.626835579694476,  0.315036750776841 ]
    mass: 107.868200
    reduced_to: 46
  - symbol: Ag # 56
    coordinates: [  0.137949952882984,  0.960168913027809,  0.315036750776841 ]
    mass: 107.868200
    reduced_to: 46
  - symbol: Ag # 57
    coordinates: [  0.337949952882984,  0.960168913027809,  0.315036750776841 ]
    mass: 107.868200
    reduced_to: 46
  - symbol: Ag # 58
    coordinates: [  0.537949952882985,  0.960168913027809,  0.315036750776841 ]
    mass: 107.868200
    reduced_to: 46
  - symbol: Ag # 59
    coordinates: [  0.737949952882984,  0.960168913027809,  0.315036750776841 ]
    mass: 107.868200
    reduced_to: 46
  - symbol: Ag # 60
    coordinates: [  0.937949952882985,  0.960168913027809,  0.315036750776841 ]
    mass: 107.868200
    reduced_to: 46
  - symbol: Ag # 61
    coordinates: [  0.137949952882984,  0.293502246361143,  0.648370084110174 ]
    mass: 107.868200
    reduced_to: 46
  - symbol: Ag # 62
    coordinates: [  0.337949952882984,  0.293502246361143,  0.648370084110174 ]
    mass: 107.868200
    reduced_to: 46
  - symbol: Ag # 63
    coordinates: [  0.537949952882985,  0.293502246361143,  0.648370084110174 ]
    mass: 107.868200
    reduced_to: 46
  - symbol: Ag # 64
    coordinates: [  0.737949952882984,  0.293502246361143,  0.648370084110174 ]
    mass: 107.868200
    reduced_to: 46
  - symbol: Ag # 65
    coordinates: [  0.937949952882985,  0.293502246361143,  0.648370084110174 ]
    mass: 107.868200
    reduced_to: 46
  - symbol: Ag # 66
    coordinates: [  0.137949952882984,  0.626835579694476,  0.648370084110174 ]
    mass: 107.868200
    reduced_to: 46
  - symbol: Ag # 67
    coordinates: [  0.337949952882984,  0.626835579694476,  0.648370084110174 ]
    mass: 107.868200
    reduced_to: 46
  - symbol: Ag # 68
    coordinates: [  0.537949952882985,  0.626835579694476,  0.648370084110174 ]
    mass: 107.868200
    reduced_to: 46
  - symbol: Ag # 69
    coordinates: [  0.737949952882984,  0.626835579694476,  0.648370084110174 ]
    mass: 107.868200
    reduced_to: 46
  - symbol: Ag # 70
    coordinates: [  0.937949952882985,  0.626835579694476,  0.648370084110174 ]
    mass: 107.868200
    reduced_to: 46
  - symbol: Ag # 71
    coordinates: [  0.137949952882984,  0.960168913027809,  0.648370084110174 ]
    mass: 107.868200
    reduced_to: 46
  - symbol: Ag # 72
    coordinates: [  0.337949952882984,  0.960168913027809,  0.648370084110174 ]
    mass: 107.868200
    reduced_to: 46
  - symbol: Ag # 73
    coordinates: [  0.537949952882985,  0.960168913027809,  0.648370084110174 ]
    mass: 107.868200
    reduced_to: 46
  - symbol: Ag # 74
    coordinates: [  0.737949952882984,  0.960168913027809,  0.648370084110174 ]
    mass: 107.868200
    reduced_to: 46
  - symbol: Ag # 75
    coordinates: [  0.937949952882985,  0.960168913027809,  0.648370084110174 ]
    mass: 107.868200
    reduced_to: 46
  - symbol: Ag # 76
    coordinates: [  0.137949952882984,  0.293502246361143,  0.981703417443507 ]
    mass: 107.868200
    reduced_to: 46
  - symbol: Ag # 77
    coordinates: [  0.337949952882984,  0.293502246361143,  0.981703417443507 ]
    mass: 107.868200
    reduced_to: 46
  - symbol: Ag # 78
    coordinates: [  0.537949952882985,  0.293502246361143,  0.981703417443507 ]
    mass: 107.868200
    reduced_to: 46
  - symbol: Ag # 79
    coordinates: [  0.737949952882984,  0.293502246361143,  0.981703417443507 ]
    mass: 107.868200
    reduced_to: 46
  - symbol: Ag # 80
    coordinates: [  0.937949952882985,  0.293502246361143,  0.981703417443507 ]
    mass: 107.868200
    reduced_to: 46
  - symbol: Ag # 81
    coordinates: [  0.137949952882984,  0.626835579694476,  0.981703417443507 ]
    mass: 107.868200
    reduced_to: 46
  - symbol: Ag # 82
    coordinates: [  0.337949952882984,  0.626835579694476,  0.981703417443507 ]
    mass: 107.868200
    reduced_to: 46
  - symbol: Ag # 83
    coordinates: [  0.537949952882985,  0.626835579694476,  0.981703417443507 ]
    mass: 107.868200
    reduced_to: 46
  - symbol: Ag # 84
    coordinates: [  0.737949952882984,  0.626835579694476,  0.981703417443507 ]
    mass: 107.868200
    reduced_to: 46
  - symbol: Ag # 85
    coordinates: [  0.937949952882985,  0.626835579694476,  0.981703417443507 ]
    mass: 107.868200
    reduced_to: 46
  - symbol: Ag # 86
    coordinates: [  0.137949952882984,  0.960168913027809,  0.981703417443507 ]
    mass: 107.868200
    reduced_to: 46
  - symbol: Ag # 87
    coordinates: [  0.337949952882984,  0.960168913027809,  0.981703417443507 ]
    mass: 107.868200
    reduced_to: 46
  - symbol: Ag # 88
    coordinates: [  0.537949952882985,  0.960168913027809,  0.981703417443507 ]
    mass: 107.868200
    reduced_to: 46
  - symbol: Ag # 89
    coordinates: [  0.737949952882984,  0.960168913027809,  0.981703417443507 ]
    mass: 107.868200
    reduced_to: 46
  - symbol: Ag # 90
    coordinates: [  0.937949952882985,  0.960168913027809,  0.981703417443507 ]
    mass: 107.868200
    reduced_to: 46
  - symbol: Ag # 91
    coordinates: [  0.096294267494992,  0.255760818562318,  0.125676474652334 ]
    mass: 107.868200
    reduced_to: 91
  - symbol: Ag # 92
    coordinates: [  0.296294267494992,  0.255760818562318,  0.125676474652334 ]
    mass: 107.868200
    reduced_to: 91
  - symbol: Ag # 93
    coordinates: [  0.496294267494992,  0.255760818562318,  0.125676474652334 ]
    mass: 107.868200
    reduced_to: 91
  - symbol: Ag # 94
    coordinates: [  0.696294267494992,  0.255760818562318,  0.125676474652334 ]
    mass: 107.868200
    reduced_to: 91
  - symbol: Ag # 95
    coordinates: [  0.896294267494992,  0.255760818562318,  0.125676474652334 ]
    mass: 107.868200
    reduced_to: 91
  - symbol: Ag # 96
    coordinates: [  0.096294267494992,  0.589094151895652,  0.125676474652334 ]
    mass: 107.868200
    reduced_to: 91
  - symbol: Ag # 97
    coordinates: [  0.296294267494992,  0.589094151895652,  0.125676474652334 ]
    mass: 107.868200
    reduced_to: 91
  - symbol: Ag # 98
    coordinates: [  0.496294267494992,  0.589094151895652,  0.125676474652334 ]
    mass: 107.868200
    reduced_to: 91
  - symbol: Ag # 99
    coordinates: [  0.696294267494992,  0.589094151895652,  0.125676474652334 ]
    mass: 107.868200
    reduced_to: 91
  - symbol: Ag # 100
    coordinates: [  0.896294267494992,  0.589094151895652,  0.125676474652334 ]
    mass: 107.868200
    reduced_to: 91
  - symbol: Ag # 101
    coordinates: [  0.096294267494992,  0.922427485228985,  0.125676474652334 ]
    mass: 107.868200
    reduced_to: 91
  - symbol: Ag # 102
    coordinates: [  0.296294267494992,  0.922427485228985,  0.125676474652334 ]
    mass: 107.868200
    reduced_to: 91
  - symbol: Ag # 103
    coordinates: [  0.496294267494992,  0.922427485228985,  0.125676474652334 ]
    mass: 107.868200
    reduced_to: 91
  - symbol: Ag # 104
    coordinates: [  0.696294267494992,  0.922427485228985,  0.125676474652334 ]
    mass: 107.868200
    reduced_to: 91
  - symbol: Ag # 105
    coordinates: [  0.896294267494992,  0.922427485228985,  0.125676474652334 ]
    mass: 107.868200
    reduced_to: 91
  - symbol: Ag # 106
    coordinates: [  0.096294267494992,  0.255760818562318,  0.459009807985668 ]
    mass: 107.868200
    reduced_to: 91
  - symbol: Ag # 107
    coordinates: [  0.296294267494992,  0.255760818562318,  0.459009807985668 ]
    mass: 107.868200
    reduced_to: 91
  - symbol: Ag # 108
    coordinates: [  0.496294267494992,  0.255760818562318,  0.459009807985668 ]
    mass: 107.868200
    reduced_to: 91
  - symbol: Ag # 109
    coordinates: [  0.696294267494992,  0.255760818562318,  0.459009807985668 ]
    mass: 107.868200
    reduced_to: 91
  - symbol: Ag # 110
    coordinates: [  0.896294267494992,  0.255760818562318,  0.459009807985668 ]
    mass: 107.868200
    reduced_to: 91
  - symbol: Ag # 111
    coordinates: [  0.096294267494992,  0.589094151895652,  0.459009807985668 ]
    mass: 107.868200
    reduced_to: 91
  - symbol: Ag # 112
    coordinates: [  0.296294267494992,  0.589094151895652,  0.459009807985668 ]
    mass: 107.868200
    reduced_to: 91
  - symbol: Ag # 113
    coordinates: [  0.496294267494992,  0.589094151895652,  0.459009807985668 ]
    mass: 107.868200
    reduced_to: 91
  - symbol: Ag # 114
    coordinates: [  0.696294267494992,  0.589094151895652,  0.459009807985668 ]
    mass: 107.868200
    reduced_to: 91
  - symbol: Ag # 115
    coordinates: [  0.896294267494992,  0.589094151895652,  0.459009807985668 ]
    mass: 107.868200
    reduced_to: 91
  - symbol: Ag # 116
    coordinates: [  0.096294267494992,  0.922427485228985,  0.459009807985668 ]
    mass: 107.868200
    reduced_to: 91
  - symbol: Ag # 117
    coordinates: [  0.296294267494992,  0.922427485228985,  0.459009807985668 ]
    mass: 107.868200
    reduced_to: 91
  - symbol: Ag # 118
    coordinates: [  0.496294267494992,  0.922427485228985,  0.459009807985668 ]
    mass: 107.868200
    reduced_to: 91
  - symbol: Ag # 119
    coordinates: [  0.696294267494992,  0.922427485228985,  0.459009807985668 ]
    mass: 107.868200
    reduced_to: 91
  - symbol: Ag # 120
    coordinates: [  0.896294267494992,  0.922427485228985,  0.459009807985668 ]
    mass: 107.868200
    reduced_to: 91
  - symbol: Ag # 121
    coordinates: [  0.096294267494992,  0.255760818562318,  0.792343141319001 ]
    mass: 107.868200
    reduced_to: 91
  - symbol: Ag # 122
    coordinates: [  0.296294267494992,  0.255760818562318,  0.792343141319001 ]
    mass: 107.868200
    reduced_to: 91
  - symbol: Ag # 123
    coordinates: [  0.496294267494992,  0.255760818562318,  0.792343141319001 ]
    mass: 107.868200
    reduced_to: 91
  - symbol: Ag # 124
    coordinates: [  0.696294267494992,  0.255760818562318,  0.792343141319001 ]
    mass: 107.868200
    reduced_to: 91
  - symbol: Ag # 125
    coordinates: [  0.896294267494992,  0.255760818562318,  0.792343141319001 ]
    mass: 107.868200
    reduced_to: 91
  - symbol: Ag # 126
    coordinates: [  0.096294267494992,  0.589094151895652,  0.792343141319001 ]
    mass: 107.868200
    reduced_to: 91
  - symbol: Ag # 127
    coordinates: [  0.296294267494992,  0.589094151895652,  0.792343141319001 ]
    mass: 107.868200
    reduced_to: 91
  - symbol: Ag # 128
    coordinates: [  0.496294267494992,  0.589094151895652,  0.792343141319001 ]
    mass: 107.868200
    reduced_to: 91
  - symbol: Ag # 129
    coordinates: [  0.696294267494992,  0.589094151895652,  0.792343141319001 ]
    mass: 107.868200
    reduced_to: 91
  - symbol: Ag # 130
    coordinates: [  0.896294267494992,  0.589094151895652,  0.792343141319001 ]
    mass: 107.868200
    reduced_to: 91
  - symbol: Ag # 131
    coordinates: [  0.096294267494992,  0.922427485228985,  0.792343141319001 ]
    mass: 107.868200
    reduced_to: 91
  - symbol: Ag # 132
    coordinates: [  0.296294267494992,  0.922427485228985,  0.792343141319001 ]
    mass: 107.868200
    reduced_to: 91
  - symbol: Ag # 133
    coordinates: [  0.496294267494992,  0.922427485228985,  0.792343141319001 ]
    mass: 107.868200
    reduced_to: 91
  - symbol: Ag # 134
    coordinates: [  0.696294267494992,  0.922427485228985,  0.792343141319001 ]
    mass: 107.868200
    reduced_to: 91
  - symbol: Ag # 135
    coordinates: [  0.896294267494992,  0.922427485228985,  0.792343141319001 ]
    mass: 107.868200
    reduced_to: 91
  - symbol: Ag # 136
    coordinates: [  0.037949952882984,  0.206497753638857,  0.018296582556492 ]
    mass: 107.868200
    reduced_to: 136
  - symbol: Ag # 137
    coordinates: [  0.237949952882984,  0.206497753638857,  0.018296582556492 ]
    mass: 107.868200
    reduced_to: 136
  - symbol: Ag # 138
    coordinates: [  0.437949952882984,  0.206497753638857,  0.018296582556492 ]
    mass: 107.868200
    reduced_to: 136
  - symbol: Ag # 139
    coordinates: [  0.637949952882985,  0.206497753638857,  0.018296582556492 ]
    mass: 107.868200
    reduced_to: 136
  - symbol: Ag # 140
    coordinates: [  0.837949952882985,  0.206497753638857,  0.018296582556492 ]
    mass: 107.868200
    reduced_to: 136
  - symbol: Ag # 141
    coordinates: [  0.037949952882984,  0.539831086972191,  0.018296582556492 ]
    mass: 107.868200
    reduced_to: 136
  - symbol: Ag # 142
    coordinates: [  0.237949952882984,  0.539831086972191,  0.018296582556492 ]
    mass: 107.868200
    reduced_to: 136
  - symbol: Ag # 143
    coordinates: [  0.437949952882984,  0.539831086972191,  0.018296582556492 ]
    mass: 107.868200
    reduced_to: 136
  - symbol: Ag # 144
    coordinates: [  0.637949952882985,  0.539831086972191,  0.018296582556492 ]
    mass: 107.868200
    reduced_to: 136
  - symbol: Ag # 145
    coordinates: [  0.837949952882985,  0.539831086972191,  0.018296582556492 ]
    mass: 107.868200
    reduced_to: 136
  - symbol: Ag # 146
    coordinates: [  0.037949952882984,  0.873164420305524,  0.018296582556492 ]
    mass: 107.868200
    reduced_to: 136
  - symbol: Ag # 147
    coordinates: [  0.237949952882984,  0.873164420305524,  0.018296582556492 ]
    mass: 107.868200
    reduced_to: 136
  - symbol: Ag # 148
    coordinates: [  0.437949952882984,  0.873164420305524,  0.018296582556492 ]
    mass: 107.868200
    reduced_to: 136
  - symbol: Ag # 149
    coordinates: [  0.637949952882985,  0.873164420305524,  0.018296582556492 ]
    mass: 107.868200
    reduced_to: 136
  - symbol: Ag # 150
    coordinates: [  0.837949952882985,  0.873164420305524,  0.018296582556492 ]
    mass: 107.868200
    reduced_to: 136
  - symbol: Ag # 151
    coordinates: [  0.037949952882984,  0.206497753638857,  0.351629915889826 ]
    mass: 107.868200
    reduced_to: 136
  - symbol: Ag # 152
    coordinates: [  0.237949952882984,  0.206497753638857,  0.351629915889826 ]
    mass: 107.868200
    reduced_to: 136
  - symbol: Ag # 153
    coordinates: [  0.437949952882984,  0.206497753638857,  0.351629915889826 ]
    mass: 107.868200
    reduced_to: 136
  - symbol: Ag # 154
    coordinates: [  0.637949952882985,  0.206497753638857,  0.351629915889826 ]
    mass: 107.868200
    reduced_to: 136
  - symbol: Ag # 155
    coordinates: [  0.837949952882985,  0.206497753638857,  0.351629915889826 ]
    mass: 107.868200
    reduced_to: 136
  - symbol: Ag # 156
    coordinates: [  0.037949952882984,  0.539831086972191,  0.351629915889826 ]
    mass: 107.868200
    reduced_to: 136
  - symbol: Ag # 157
    coordinates: [  0.237949952882984,  0.539831086972191,  0.351629915889826 ]
    mass: 107.868200
    reduced_to: 136
  - symbol: Ag # 158
    coordinates: [  0.437949952882984,  0.539831086972191,  0.351629915889826 ]
    mass: 107.868200
    reduced_to: 136
  - symbol: Ag # 159
    coordinates: [  0.637949952882985,  0.539831086972191,  0.351629915889826 ]
    mass: 107.868200
    reduced_to: 136
  - symbol: Ag # 160
    coordinates: [  0.837949952882985,  0.539831086972191,  0.351629915889826 ]
    mass: 107.868200
    reduced_to: 136
  - symbol: Ag # 161
    coordinates: [  0.037949952882984,  0.873164420305524,  0.351629915889826 ]
    mass: 107.868200
    reduced_to: 136
  - symbol: Ag # 162
    coordinates: [  0.237949952882984,  0.873164420305524,  0.351629915889826 ]
    mass: 107.868200
    reduced_to: 136
  - symbol: Ag # 163
    coordinates: [  0.437949952882984,  0.873164420305524,  0.351629915889826 ]
    mass: 107.868200
    reduced_to: 136
  - symbol: Ag # 164
    coordinates: [  0.637949952882985,  0.873164420305524,  0.351629915889826 ]
    mass: 107.868200
    reduced_to: 136
  - symbol: Ag # 165
    coordinates: [  0.837949952882985,  0.873164420305524,  0.351629915889826 ]
    mass: 107.868200
    reduced_to: 136
  - symbol: Ag # 166
    coordinates: [  0.037949952882984,  0.206497753638857,  0.684963249223159 ]
    mass: 107.868200
    reduced_to: 136
  - symbol: Ag # 167
    coordinates: [  0.237949952882984,  0.206497753638857,  0.684963249223159 ]
    mass: 107.868200
    reduced_to: 136
  - symbol: Ag # 168
    coordinates: [  0.437949952882984,  0.206497753638857,  0.684963249223159 ]
    mass: 107.868200
    reduced_to: 136
  - symbol: Ag # 169
    coordinates: [  0.637949952882985,  0.206497753638857,  0.684963249223159 ]
    mass: 107.868200
    reduced_to: 136
  - symbol: Ag # 170
    coordinates: [  0.837949952882985,  0.206497753638857,  0.684963249223159 ]
    mass: 107.868200
    reduced_to: 136
  - symbol: Ag # 171
    coordinates: [  0.037949952882984,  0.539831086972191,  0.684963249223159 ]
    mass: 107.868200
    reduced_to: 136
  - symbol: Ag # 172
    coordinates: [  0.237949952882984,  0.539831086972191,  0.684963249223159 ]
    mass: 107.868200
    reduced_to: 136
  - symbol: Ag # 173
    coordinates: [  0.437949952882984,  0.539831086972191,  0.684963249223159 ]
    mass: 107.868200
    reduced_to: 136
  - symbol: Ag # 174
    coordinates: [  0.637949952882985,  0.539831086972191,  0.684963249223159 ]
    mass: 107.868200
    reduced_to: 136
  - symbol: Ag # 175
    coordinates: [  0.837949952882985,  0.539831086972191,  0.684963249223159 ]
    mass: 107.868200
    reduced_to: 136
  - symbol: Ag # 176
    coordinates: [  0.037949952882984,  0.873164420305524,  0.684963249223159 ]
    mass: 107.868200
    reduced_to: 136
  - symbol: Ag # 177
    coordinates: [  0.237949952882984,  0.873164420305524,  0.684963249223159 ]
    mass: 107.868200
    reduced_to: 136
  - symbol: Ag # 178
    coordinates: [  0.437949952882984,  0.873164420305524,  0.684963249223159 ]
    mass: 107.868200
    reduced_to: 136
  - symbol: Ag # 179
    coordinates: [  0.637949952882985,  0.873164420305524,  0.684963249223159 ]
    mass: 107.868200
    reduced_to: 136
  - symbol: Ag # 180
    coordinates: [  0.837949952882985,  0.873164420305524,  0.684963249223159 ]
    mass: 107.868200
    reduced_to: 136
  - symbol: Ag # 181