phonopy:
  version: "2.21.0"
  frequency_unit_conversion_factor: 15.633302
  symmetry_tolerance: 1.00000e-04

space_group:
  type: "Pnma"
  number: 62
  Hall_symbol: "-P 2ac 2n"

primitive_matrix:
- [  0.000000000000000,  1.000000000000000, -0.000000000000000 ]
- [  0.000000000000000,  0.000000000000000,  1.000000000000000 ]
- [  1.000000000000000,  0.000000000000000, -0.000000000000000 ]

supercell_matrix:
- [   5,   0,   0 ]
- [   0,   2,   0 ]
- [   0,   0,   1 ]

primitive_cell:
  lattice:
  - [     0.000000000000000,     0.000000000000000,    25.892835517646894 ] # a
  - [     4.515275012181009,     0.000000000000000,     0.000000000000000 ] # b
  - [    -0.000000000000001,    10.397041576798999,     0.000000000000001 ] # c
  points:
  - symbol: Ba # 1
    coordinates: [  0.537727796759059,  0.750000000000000,  0.720903407082787 ]
    mass: 137.327000
  - symbol: Ba # 2
    coordinates: [  0.462272203240942,  0.250000000000000,  0.279096592917213 ]
    mass: 137.327000
  - symbol: Ba # 3
    coordinates: [  0.962272203240942,  0.250000000000000,  0.220903407082787 ]
    mass: 137.327000
  - symbol: Ba # 4
    coordinates: [  0.037727796759059,  0.750000000000000,  0.779096592917213 ]
    mass: 137.327000
  - symbol: Ba # 5
    coordinates: [  0.708075880369345,  0.250000000000000,  0.947238864967704 ]
    mass: 137.327000
  - symbol: Ba # 6
    coordinates: [  0.291924119630655,  0.750000000000000,  0.052761135032296 ]
    mass: 137.327000
  - symbol: Ba # 7
    coordinates: [  0.791924119630655,  0.750000000000000,  0.447238864967704 ]
    mass: 137.327000
  - symbol: Ba # 8
    coordinates: [  0.208075880369345,  0.250000000000000,  0.552761135032296 ]
    mass: 137.327000
  - symbol: Ga # 9
    coordinates: [  0.965771933135520,  0.250000000000000,  0.602126870494860 ]
    mass: 69.723000
  - symbol: Ga # 10
    coordinates: [  0.034228066864481,  0.750000000000000,  0.397873129505140 ]
    mass: 69.723000
  - symbol: Ga # 11
    coordinates: [  0.534228066864481,  0.750000000000000,  0.102126870494860 ]
    mass: 69.723000
  - symbol: Ga # 12
    coordinates: [  0.465771933135519,  0.250000000000000,  0.897873129505140 ]
    mass: 69.723000
  - symbol: Ga # 13
    coordinates: [  0.784719841669656,  0.750000000000000,  0.793017031249908 ]
    mass: 69.723000
  - symbol: Ga # 14
    coordinates: [  0.215280158330344,  0.250000000000000,  0.206982968750092 ]
    mass: 69.723000
  - symbol: Ga # 15
    coordinates: [  0.715280158330344,  0.250000000000000,  0.293017031249908 ]
    mass: 69.723000
  - symbol: Ga # 16
    coordinates: [  0.284719841669656,  0.750000000000000,  0.706982968750092 ]
    mass: 69.723000
  - symbol: Ga # 17
    coordinates: [  0.578904435135365,  0.750000000000000,  0.322006442208306 ]
    mass: 69.723000
  - symbol: Ga # 18
    coordinates: [  0.421095564864635,  0.250000000000000,  0.677993557791694 ]
    mass: 69.723000
  - symbol: Ga # 19
    coordinates: [  0.817795832486369,  0.750000000000000,  0.029013603483282 ]
    mass: 69.723000
  - symbol: Ga # 20
    coordinates: [  0.182204167513631,  0.250000000000000,  0.970986396516718 ]
    mass: 69.723000
  - symbol: Ga # 21
    coordinates: [  0.682204167513631,  0.250000000000000,  0.529013603483282 ]
    mass: 69.723000
  - symbol: Ga # 22
    coordinates: [  0.317795832486369,  0.750000000000000,  0.470986396516718 ]
    mass: 69.723000
  - symbol: Ga # 23
    coordinates: [  0.921095564864635,  0.250000000000000,  0.822006442208306 ]
    mass: 69.723000
  - symbol: Ga # 24
    coordinates: [  0.078904435135365,  0.750000000000000,  0.177993557791694 ]
    mass: 69.723000
  - symbol: Sb # 25
    coordinates: [  0.078720017347066,  0.250000000000000,  0.026430065193293 ]
    mass: 121.760000
  - symbol: Sb # 26
    coordinates: [  0.921279982652934,  0.750000000000000,  0.973569934806706 ]
    mass: 121.760000
  - symbol: Sb # 27
    coordinates: [  0.421279982652934,  0.750000000000000,  0.526430065193294 ]
    mass: 121.760000
  - symbol: Sb # 28
    coordinates: [  0.578720017347067,  0.250000000000000,  0.473569934806707 ]
    mass: 121.760000
  - symbol: Sb # 29
    coordinates: [  0.070692458107574,  0.250000000000000,  0.518356361385349 ]
    mass: 121.760000
  - symbol: Sb # 30
    coordinates: [  0.929307541892426,  0.750000000000000,  0.481643638614651 ]
    mass: 121.760000
  - symbol: Sb # 31
    coordinates: [  0.429307541892426,  0.750000000000000,  0.018356361385349 ]
    mass: 121.760000
  - symbol: Sb # 32
    coordinates: [  0.570692458107574,  0.250000000000000,  0.981643638614651 ]
    mass: 121.760000
  - symbol: Sb # 33
    coordinates: [  0.814488144347140,  0.250000000000000,  0.183198242947773 ]
    mass: 121.760000
  - symbol: Sb # 34
    coordinates: [  0.185511855652860,  0.750000000000000,  0.816801757052227 ]
    mass: 121.760000
  - symbol: Sb # 35
    coordinates: [  0.829442666134665,  0.250000000000000,  0.696475741954139 ]
    mass: 121.760000
  - symbol: Sb # 36
    coordinates: [  0.170557333865336,  0.750000000000000,  0.303524258045860 ]
    mass: 121.760000
  - symbol: Sb # 37
    coordinates: [  0.670557333865336,  0.750000000000000,  0.196475741954139 ]
    mass: 121.760000
  - symbol: Sb # 38
    coordinates: [  0.329442666134664,  0.250000000000000,  0.803524258045861 ]
    mass: 121.760000
  - symbol: Sb # 39
    coordinates: [  0.685511855652860,  0.750000000000000,  0.683198242947773 ]
    mass: 121.760000
  - symbol: Sb # 40
    coordinates: [  0.314488144347140,  0.250000000000000,  0.316801757052227 ]
    mass: 121.760000
  reciprocal_lattice: # without 2pi
  - [    -0.000000000000000,    -0.000000000000000,     0.038620721910448 ] # a*
  - [     0.221470452475711,     0.000000000000000,     0.000000000000000 ] # b*
  - [     0.000000000000000,     0.096181206222307,     0.000000000000000 ] # c*

unit_cell:
  lattice:
  - [     4.515275012181009,    -0.000000000000000,     0.000000000000000 ] # a
  - [    -0.000000000000001,    10.397041576798999,     0.000000000000001 ] # b
  - [     0.000000000000000,    -0.000000000000000,    25.892835517646901 ] # c
  points:
  - symbol: Ba # 1
    coordinates: [  0.750000000000000,  0.720903407082787,  0.537727796759059 ]
    mass: 137.327000
    reduced_to: 1
  - symbol: Ba # 2
    coordinates: [  0.250000000000000,  0.279096592917213,  0.462272203240941 ]
    mass: 137.327000
    reduced_to: 2
  - symbol: Ba # 3
    coordinates: [  0.250000000000000,  0.220903407082787,  0.962272203240941 ]
    mass: 137.327000
    reduced_to: 3
  - symbol: Ba # 4
    coordinates: [  0.750000000000000,  0.779096592917213,  0.037727796759058 ]
    mass: 137.327000
    reduced_to: 4
  - symbol: Ba # 5
    coordinates: [  0.250000000000000,  0.947238864967704,  0.708075880369345 ]
    mass: 137.327000
    reduced_to: 5
  - symbol: Ba # 6
    coordinates: [  0.750000000000000,  0.052761135032296,  0.291924119630655 ]
    mass: 137.327000
    reduced_to: 6
  - symbol: Ba # 7
    coordinates: [  0.750000000000000,  0.447238864967704,  0.791924119630655 ]
    mass: 137.327000
    reduced_to: 7
  - symbol: Ba # 8
    coordinates: [  0.250000000000000,  0.552761135032296,  0.208075880369345 ]
    mass: 137.327000
    reduced_to: 8
  - symbol: Ga # 9
    coordinates: [  0.250000000000000,  0.602126870494860,  0.965771933135519 ]
    mass: 69.723000
    reduced_to: 9
  - symbol: Ga # 10
    coordinates: [  0.750000000000000,  0.397873129505140,  0.034228066864481 ]
    mass: 69.723000
    reduced_to: 10
  - symbol: Ga # 11
    coordinates: [  0.750000000000000,  0.102126870494860,  0.534228066864481 ]
    mass: 69.723000
    reduced_to: 11
  - symbol: Ga # 12
    coordinates: [  0.250000000000000,  0.897873129505140,  0.465771933135519 ]
    mass: 69.723000
    reduced_to: 12
  - symbol: Ga # 13
    coordinates: [  0.750000000000000,  0.793017031249908,  0.784719841669656 ]
    mass: 69.723000
    reduced_to: 13
  - symbol: Ga # 14
    coordinates: [  0.250000000000000,  0.206982968750092,  0.215280158330344 ]
    mass: 69.723000
    reduced_to: 14
  - symbol: Ga # 15
    coordinates: [  0.250000000000000,  0.293017031249908,  0.715280158330344 ]
    mass: 69.723000
    reduced_to: 15
  - symbol: Ga # 16
    coordinates: [  0.750000000000000,  0.706982968750092,  0.284719841669656 ]
    mass: 69.723000
    reduced_to: 16
  - symbol: Ga # 17
    coordinates: [  0.750000000000000,  0.322006442208306,  0.578904435135365 ]
    mass: 69.723000
    reduced_to: 17
  - symbol: Ga # 18
    coordinates: [  0.250000000000000,  0.677993557791694,  0.421095564864635 ]
    mass: 69.723000
    reduced_to: 18
  - symbol: Ga # 19
    coordinates: [  0.750000000000000,  0.029013603483282,  0.817795832486369 ]
    mass: 69.723000
    reduced_to: 19
  - symbol: Ga # 20
    coordinates: [  0.250000000000000,  0.970986396516718,  0.182204167513631 ]
    mass: 69.723000
    reduced_to: 20
  - symbol: Ga # 21
    coordinates: [  0.250000000000000,  0.529013603483282,  0.682204167513631 ]
    mass: 69.723000
    reduced_to: 21
  - symbol: Ga # 22
    coordinates: [  0.750000000000000,  0.470986396516718,  0.317795832486369 ]
    mass: 69.723000
    reduced_to: 22
  - symbol: Ga # 23
    coordinates: [  0.250000000000000,  0.822006442208306,  0.921095564864635 ]
    mass: 69.723000
    reduced_to: 23
  - symbol: Ga # 24
    coordinates: [  0.750000000000000,  0.177993557791694,  0.078904435135365 ]
    mass: 69.723000
    reduced_to: 24
  - symbol: Sb # 25
    coordinates: [  0.250000000000000,  0.026430065193293,  0.078720017347066 ]
    mass: 121.760000
    reduced_to: 25
  - symbol: Sb # 26
    coordinates: [  0.750000000000000,  0.973569934806706,  0.921279982652934 ]
    mass: 121.760000
    reduced_to: 26
  - symbol: Sb # 27
    coordinates: [  0.750000000000000,  0.526430065193294,  0.421279982652934 ]
    mass: 121.760000
    reduced_to: 27
  - symbol: Sb # 28
    coordinates: [  0.250000000000000,  0.473569934806707,  0.578720017347066 ]
    mass: 121.760000
    reduced_to: 28
  - symbol: Sb # 29
    coordinates: [  0.250000000000000,  0.518356361385349,  0.070692458107574 ]
    mass: 121.760000
    reduced_to: 29
  - symbol: Sb # 30
    coordinates: [  0.750000000000000,  0.481643638614651,  0.929307541892426 ]
    mass: 121.760000
    reduced_to: 30
  - symbol: Sb # 31
    coordinates: [  0.750000000000000,  0.018356361385349,  0.429307541892426 ]
    mass: 121.760000
    reduced_to: 31
  - symbol: Sb # 32
    coordinates: [  0.250000000000000,  0.981643638614651,  0.570692458107574 ]
    mass: 121.760000
    reduced_to: 32
  - symbol: Sb # 33
    coordinates: [  0.250000000000000,  0.183198242947773,  0.814488144347140 ]
    mass: 121.760000
    reduced_to: 33
  - symbol: Sb # 34
    coordinates: [  0.750000000000000,  0.816801757052227,  0.185511855652860 ]
    mass: 121.760000
    reduced_to: 34
  - symbol: Sb # 35
    coordinates: [  0.250000000000000,  0.696475741954139,  0.829442666134664 ]
    mass: 121.760000
    reduced_to: 35
  - symbol: Sb # 36
    coordinates: [  0.750000000000000,  0.303524258045860,  0.170557333865336 ]
    mass: 121.760000
    reduced_to: 36
  - symbol: Sb # 37
    coordinates: [  0.750000000000000,  0.196475741954139,  0.670557333865336 ]
    mass: 121.760000
    reduced_to: 37
  - symbol: Sb # 38
    coordinates: [  0.250000000000000,  0.803524258045861,  0.329442666134664 ]
    mass: 121.760000
    reduced_to: 38
  - symbol: Sb # 39
    coordinates: [  0.750000000000000,  0.683198242947773,  0.685511855652860 ]
    mass: 121.760000
    reduced_to: 39
  - symbol: Sb # 40
    coordinates: [  0.250000000000000,  0.316801757052227,  0.314488144347140 ]
    mass: 121.760000
    reduced_to: 40

supercell:
  lattice:
  - [    22.576375060905043,     0.000000000000000,     0.000000000000001 ] # a
  - [    -0.000000000000001,    20.794083153597999,     0.000000000000001 ] # b
  - [     0.000000000000000,     0.000000000000000,    25.892835517646901 ] # c
  points:
  - symbol: Ba # 1
    coordinates: [  0.150000000000000,  0.360451703541393,  0.537727796759059 ]
    mass: 137.327000
    reduced_to: 1
  - symbol: Ba # 2
    coordinates: [  0.350000000000000,  0.360451703541393,  0.537727796759059 ]
    mass: 137.327000
    reduced_to: 1
  - symbol: Ba # 3
    coordinates: [  0.550000000000000,  0.360451703541393,  0.537727796759059 ]
    mass: 137.327000
    reduced_to: 1
  - symbol: Ba # 4
    coordinates: [  0.750000000000000,  0.360451703541393,  0.537727796759059 ]
    mass: 137.327000
    reduced_to: 1
  - symbol: Ba # 5
    coordinates: [  0.950000000000000,  0.360451703541393,  0.537727796759059 ]
    mass: 137.327000
    reduced_to: 1
  - symbol: Ba # 6
    coordinates: [  0.150000000000000,  0.860451703541393,  0.537727796759059 ]
    mass: 137.327000
    reduced_to: 1
  - symbol: Ba # 7
    coordinates: [  0.350000000000000,  0.860451703541393,  0.537727796759059 ]
    mass: 137.327000
    reduced_to: 1
  - symbol: Ba # 8
    coordinates: [  0.550000000000000,  0.860451703541393,  0.537727796759059 ]
    mass: 137.327000
    reduced_to: 1
  - symbol: Ba # 9
    coordinates: [  0.750000000000000,  0.860451703541393,  0.537727796759059 ]
    mass: 137.327000
    reduced_to: 1
  - symbol: Ba # 10
    coordinates: [  0.950000000000000,  0.860451703541393,  0.537727796759059 ]
    mass: 137.327000
    reduced_to: 1
  - symbol: Ba # 11
    coordinates: [  0.050000000000000,  0.139548296458607,  0.462272203240941 ]
    mass: 137.327000
    reduced_to: 11
  - symbol: Ba # 12
    coordinates: [  0.250000000000000,  0.139548296458607,  0.462272203240941 ]
    mass: 137.327000
    reduced_to: 11
  - symbol: Ba # 13
    coordinates: [  0.450000000000000,  0.139548296458607,  0.462272203240941 ]
    mass: 137.327000
    reduced_to: 11
  - symbol: Ba # 14
    coordinates: [  0.650000000000000,  0.139548296458607,  0.462272203240941 ]
    mass: 137.327000
    reduced_to: 11
  - symbol: Ba # 15
    coordinates: [  0.850000000000000,  0.139548296458607,  0.462272203240941 ]
    mass: 137.327000
    reduced_to: 11
  - symbol: Ba # 16
    coordinates: [  0.050000000000000,  0.639548296458607,  0.462272203240941 ]
    mass: 137.327000
    reduced_to: 11
  - symbol: Ba # 17
    coordinates: [  0.250000000000000,  0.639548296458607,  0.462272203240941 ]
    mass: 137.327000
    reduced_to: 11
  - symbol: Ba # 18
    coordinates: [  0.450000000000000,  0.639548296458607,  0.462272203240941 ]
    mass: 137.327000
    reduced_to: 11
  - symbol: Ba # 19
    coordinates: [  0.650000000000000,  0.639548296458607,  0.462272203240941 ]
    mass: 137.327000
    reduced_to: 11
  - symbol: Ba # 20
    coordinates: [  0.850000000000000,  0.639548296458607,  0.462272203240941 ]
    mass: 137.327000
    reduced_to: 11
  - symbol: Ba # 21
    coordinates: [  0.050000000000000,  0.110451703541393,  0.962272203240941 ]
    mass: 137.327000
    reduced_to: 21
  - symbol: Ba # 22
    coordinates: [  0.250000000000000,  0.110451703541393,  0.962272203240941 ]
    mass: 137.327000
    reduced_to: 21
  - symbol: Ba # 23
    coordinates: [  0.450000000000000,  0.110451703541393,  0.962272203240941 ]
    mass: 137.327000
    reduced_to: 21
  - symbol: Ba # 24
    coordinates: [  0.650000000000000,  0.110451703541393,  0.962272203240941 ]
    mass: 137.327000
    reduced_to: 21
  - symbol: Ba # 25
    coordinates: [  0.850000000000000,  0.110451703541393,  0.962272203240941 ]
    mass: 137.327000
    reduced_to: 21
  - symbol: Ba # 26
    coordinates: [  0.050000000000000,  0.610451703541393,  0.962272203240941 ]
    mass: 137.327000
    reduced_to: 21
  - symbol: Ba # 27
    coordinates: [  0.250000000000000,  0.610451703541393,  0.962272203240941 ]
    mass: 137.327000
    reduced_to: 21
  - symbol: Ba # 28
    coordinates: [  0.450000000000000,  0.610451703541393,  0.962272203240941 ]
    mass: 137.327000
    reduced_to: 21
  - symbol: Ba # 29
    coordinates: [  0.650000000000000,  0.610451703541393,  0.962272203240941 ]
    mass: 137.327000
    reduced_to: 21
  - symbol: Ba # 30
    coordinates: [  0.850000000000000,  0.610451703541393,  0.962272203240941 ]
    mass: 137.327000
    reduced_to: 21
  - symbol: Ba # 31
    coordinates: [  0.150000000000000,  0.389548296458607,  0.037727796759058 ]
    mass: 137.327000
    reduced_to: 31
  - symbol: Ba # 32
    coordinates: [  0.350000000000000,  0.389548296458607,  0.037727796759058 ]
    mass: 137.327000
    reduced_to: 31
  - symbol: Ba # 33
    coordinates: [  0.550000000000000,  0.389548296458607,  0.037727796759058 ]
    mass: 137.327000
    reduced_to: 31
  - symbol: Ba # 34
    coordinates: [  0.750000000000000,  0.389548296458607,  0.037727796759058 ]
    mass: 137.327000
    reduced_to: 31
  - symbol: Ba # 35
    coordinates: [  0.950000000000000,  0.389548296458607,  0.037727796759058 ]
    mass: 137.327000
    reduced_to: 31
  - symbol: Ba # 36
    coordinates: [  0.150000000000000,  0.889548296458607,  0.037727796759058 ]
    mass: 137.327000
    reduced_to: 31
  - symbol: Ba # 37
    coordinates: [  0.350000000000000,  0.889548296458607,  0.037727796759058 ]
    mass: 137.327000
    reduced_to: 31
  - symbol: Ba # 38
    coordinates: [  0.550000000000000,  0.889548296458607,  0.037727796759058 ]
    mass: 137.327000
    reduced_to: 31
  - symbol: Ba # 39
    coordinates: [  0.750000000000000,  0.889548296458607,  0.037727796759058 ]
    mass: 137.327000
    reduced_to: 31
  - symbol: Ba # 40
    coordinates: [  0.950000000000000,  0.889548296458607,  0.037727796759058 ]
    mass: 137.327000
    reduced_to: 31
  - symbol: Ba # 41
    coordinates: [  0.050000000000000,  0.473619432483852,  0.708075880369345 ]
    mass: 137.327000
    reduced_to: 41
  - symbol: Ba # 42
    coordinates: [  0.250000000000000,  0.473619432483852,  0.708075880369345 ]
    mass: 137.327000
    reduced_to: 41
  - symbol: Ba # 43
    coordinates: [  0.450000000000000,  0.473619432483852,  0.708075880369345 ]
    mass: 137.327000
    reduced_to: 41
  - symbol: Ba # 44
    coordinates: [  0.650000000000000,  0.473619432483852,  0.708075880369345 ]
    mass: 137.327000
    reduced_to: 41
  - symbol: Ba # 45
    coordinates: [  0.850000000000000,  0.473619432483852,  0.708075880369345 ]
    mass: 137.327000
    reduced_to: 41
  - symbol: Ba # 46
    coordinates: [  0.050000000000000,  0.973619432483852,  0.708075880369345 ]
    mass: 137.327000
    reduced_to: 41
  - symbol: Ba # 47
    coordinates: [  0.250000000000000,  0.973619432483852,  0.708075880369345 ]
    mass: 137.327000
    reduced_to: 41
  - symbol: Ba # 48
    coordinates: [  0.450000000000000,  0.973619432483852,  0.708075880369345 ]
    mass: 137.327000
    reduced_to: 41
  - symbol: Ba # 49
    coordinates: [  0.650000000000000,  0.973619432483852,  0.708075880369345 ]
    mass: 137.327000
    reduced_to: 41
  - symbol: Ba # 50
    coordinates: [  0.850000000000000,  0.973619432483852,  0.708075880369345 ]
    mass: 137.327000
    reduced_to: 41
  - symbol: Ba # 51
    coordinates: [  0.150000000000000,  0.026380567516148,  0.291924119630655 ]
    mass: 137.327000
    reduced_to: 51
  - symbol: Ba # 52
    coordinates: [  0.350000000000000,  0.026380567516148,  0.291924119630655 ]
    mass: 137.327000
    reduced_to: 51
  - symbol: Ba # 53
    coordinates: [  0.550000000000000,  0.026380567516148,  0.291924119630655 ]
    mass: 137.327000
    reduced_to: 51
  - symbol: Ba # 54
    coordinates: [  0.750000000000000,  0.026380567516148,  0.291924119630655 ]
    mass: 137.327000
    reduced_to: 51
  - symbol: Ba # 55
    coordinates: [  0.950000000000000,  0.026380567516148,  0.291924119630655 ]
    mass: 137.327000
    reduced_to: 51
  - symbol: Ba # 56
    coordinates: [  0.150000000000000,  0.526380567516148,  0.291924119630655 ]
    mass: 137.327000
    reduced_to: 51
  - symbol: Ba # 57
    coordinates: [  0.350000000000000,  0.526380567516148,  0.291924119630655 ]
    mass: 137.327000
    reduced_to: 51
  - symbol: Ba # 58
    coordinates: [  0.550000000000000,  0.526380567516148,  0.291924119630655 ]
    mass: 137.327000
    reduced_to: 51
  - symbol: Ba # 59
    coordinates: [  0.750000000000000,  0.526380567516148,  0.291924119630655 ]
    mass: 137.327000
    reduced_to: 51
  - symbol: Ba # 60
    coordinates: [  0.950000000000000,  0.526380567516148,  0.291924119630655 ]
    mass: 137.327000
    reduced_to: 51
  - symbol: Ba # 61
    coordinates: [  0.150000000000000,  0.223619432483852,  0.791924119630655 ]
    mass: 137.327000
    reduced_to: 61
  - symbol: Ba # 62
    coordinates: [  0.350000000000000,  0.223619432483852,  0.791924119630655 ]
    mass: 137.327000
    reduced_to: 61
  - symbol: Ba # 63
    coordinates: [  0.550000000000000,  0.223619432483852,  0.791924119630655 ]
    mass: 137.327000
    reduced_to: 61
  - symbol: Ba # 64
    coordinates: [  0.750000000000000,  0.223619432483852,  0.791924119630655 ]
    mass: 137.327000
    reduced_to: 61
  - symbol: Ba # 65
    coordinates: [  0.950000000000000,  0.223619432483852,  0.791924119630655 ]
    mass: 137.327000
    reduced_to: 61
  - symbol: Ba # 66
    coordinates: [  0.150000000000000,  0.723619432483852,  0.791924119630655 ]
    mass: 137.327000
    reduced_to: 61
  - symbol: Ba # 67
    coordinates: [  0.350000000000000,  0.723619432483852,  0.791924119630655 ]
    mass: 137.327000
    reduced_to: 61
  - symbol: Ba # 68
    coordinates: [  0.550000000000000,  0.723619432483852,  0.791924119630655 ]
    mass: 137.327000
    reduced_to: 61
  - symbol: Ba # 69
    coordinates: [  0.750000000000000,  0.723619432483852,  0.791924119630655 ]
    mass: 137.327000
    reduced_to: 61
  - symbol: Ba # 70
    coordinates: [  0.950000000000000,  0.723619432483852,  0.791924119630655 ]
    mass: 137.327000
    reduced_to: 61
  - symbol: Ba # 71
    coordinates: [  0.050000000000000,  0.276380567516148,  0.208075880369345 ]
    mass: 137.327000
    reduced_to: 71
  - symbol: Ba # 72
    coordinates: [  0.250000000000000,  0.276380567516148,  0.208075880369345 ]
    mass: 137.327000
    reduced_to: 71
  - symbol: Ba # 73
    coordinates: [  0.450000000000000,  0.276380567516148,  0.208075880369345 ]
    mass: 137.327000
    reduced_to: 71
  - symbol: Ba # 74
    coordinates: [  0.650000000000000,  0.276380567516148,  0.208075880369345 ]
    mass: 137.327000
    reduced_to: 71
  - symbol: Ba # 75
    coordinates: [  0.850000000000000,  0.276380567516148,  0.208075880369345 ]
    mass: 137.327000
    reduced_to: 71
  - symbol: Ba # 76
    coordinates: [  0.050000000000000,  0.776380567516148,  0.208075880369345 ]
    mass: 137.327000
    reduced_to: 71
  - symbol: Ba # 77
    coordinates: [  0.250000000000000,  0.776380567516148,  0.208075880369345 ]
    mass: 137.327000
    reduced_to: 71
  - symbol: Ba # 78
    coordinates: [  0.450000000000000,  0.776380567516148,  0.208075880369345 ]
    mass: 137.327000
    reduced_to: 71
  - symbol: Ba # 79
    coordinates: [  0.650000000000000,  0.776380567516148,  0.208075880369345 ]
    mass: 137.327000
    reduced_to: 71
  - symbol: Ba # 80
    coordinates: [  0.850000000000000,  0.776380567516148,  0.208075880369345 ]
    mass: 137.327000
    reduced_to: 71
  - symbol: Ga # 81
    coordinates: [  0.050000000000000,  0.301063435247430,  0.965771933135519 ]
    mass: 69.723000
    reduced_to: 81
  - symbol: Ga # 82
    coordinates: [  0.250000000000000,  0.301063435247430,  0.965771933135519 ]
    mass: 69.723000
    reduced_to: 81
  - symbol: Ga # 83
    coordinates: [  0.450000000000000,  0.301063435247430,  0.965771933135519 ]
    mass: 69.723000
    reduced_to: 81
  - symbol: Ga # 84
    coordinates: [  0.650000000000000,  0.301063435247430,  0.965771933135519 ]
    mass: 69.723000
    reduced_to: 81
  - symbol: Ga # 85
    coordinates: [  0.850000000000000,  0.301063435247430,  0.965771933135519 ]
    mass: 69.723000
    reduced_to: 81
  - symbol: Ga # 86
    coordinates: [  0.050000000000000,  0.801063435247430,  0.965771933135519 ]
    mass: 69.723000
    reduced_to: 81
  - symbol: Ga # 87
    coordinates: [  0.250000000000000,  0.801063435247430,  0.965771933135519 ]
    mass: 69.723000
    reduced_to: 81
  - symbol: Ga # 88
    coordinates: [  0.450000000000000,  0.801063435247430,  0.965771933135519 ]
    mass: 69.723000
    reduced_to: 81
  - symbol: Ga # 89
    coordinates: [  0.650000000000000,  0.801063435247430,  0.965771933135519 ]
    mass: 69.723000
    reduced_to: 81
  - symbol: Ga # 90
    coordinates: [  0.850000000000000,  0.801063435247430,  0.965771933135519 ]
    mass: 69.723000
    reduced_to: 81
  - symbol: Ga # 91
    coordinates: [  0.150000000000000,  0.198936564752570,  0.034228066864481 ]
    mass: 69.723000
    reduced_to: 91
  - symbol: Ga # 92
    coordinates: [  0.350000000000000,  0.198936564752570,  0.034228066864481 ]
    mass: 69.723000
    reduced_to: 91
  - symbol: Ga # 93
    coordinates: [  0.550000000000000,  0.198936564752570,  0.034228066864481 ]
    mass: 69.723000
    reduced_to: 91
  - symbol: Ga # 94
    coordinates: [  0.750000000000000,  0.198936564752570,  0.034228066864481 ]
    mass: 69.723000
    reduced_to: 91
  - symbol: Ga # 95
    coordinates: [  0.950000000000000,  0.198936564752570,  0.034228066864481 ]
    mass: 69.723000
    reduced_to: 91
  - symbol: Ga # 96
    coordinates: [  0.150000000000000,  0.698936564752570,  0.034228066864481 ]
    mass: 69.723000
    reduced_to: 91
  - symbol: Ga # 97
    coordinates: [  0.350000000000000,  0.698936564752570,  0.034228066864481 ]
    mass: 69.723000
    reduced_to: 91
  - symbol: Ga # 98
    coordinates: [  0.550000000000000,  0.698936564752570,  0.034228066864481 ]
    mass: 69.723000
    reduced_to: 91
  - symbol: Ga # 99
    coordinates: [  0.750000000000000,  0.698936564752570,  0.034228066864481 ]
    mass: 69.723000
    reduced_to: 91
  - symbol: Ga # 100
    coordinates: [  0.950000000000000,  0.698936564752570,  0.034228066864481 ]
    mass: 69.723000
    reduced_to: 91
  - symbol: Ga # 101
    coordinates: [  0.150000000000000,  0.051063435247430,  0.534228066864481 ]
    mass: 69.723000
    reduced_to: 101
  - symbol: Ga # 102
    coordinates: [  0.350000000000000,  0.051063435247430,  0.534228066864481 ]
    mass: 69.723000
    reduced_to: 101
  - symbol: Ga # 103
    coordinates: [  0.550000000000000,  0.051063435247430,  0.534228066864481 ]
    mass: 69.723000
    reduced_to: 101
  - symbol: Ga # 104
    coordinates: [  0.750000000000000,  0.051063435247430,  0.534228066864481 ]
    mass: 69.723000
    reduced_to: 101
  - symbol: Ga # 105
    coordinates: [  0.950000000000000,  0.051063435247430,  0.534228066864481 ]
    mass: 69.723000
    reduced_to: 101
  - symbol: Ga # 106
    coordinates: [  0.150000000000000,  0.551063435247430,  0.534228066864481 ]
    mass: 69.723000
    reduced_to: 101
  - symbol: Ga # 107
    coordinates: [  0.350000000000000,  0.551063435247430,  0.534228066864481 ]
    mass: 69.723000
    reduced_to: 101
  - symbol: Ga # 108
    coordinates: [  0.550000000000000,  0.551063435247430,  0.534228066864481 ]
    mass: 69.723000
    reduced_to: 101
  - symbol: Ga # 109
    coordinates: [  0.750000000000000,  0.551063435247430,  0.534228066864481 ]
    mass: 69.723000
    reduced_to: 101
  - symbol: Ga # 110
    coordinates: [  0.950000000000000,  0.551063435247430,  0.534228066864481 ]
    mass: 69.723000
    reduced_to: 101
  - symbol: Ga # 111
    coordinates: [  0.050000000000000,  0.448936564752570,  0.465771933135519 ]
    mass: 69.723000
    reduced_to: 111
  - symbol: Ga # 112
    coordinates: [  0.250000000000000,  0.448936564752570,  0.465771933135519 ]
    mass: 69.723000
    reduced_to: 111
  - symbol: Ga # 113
    coordinates: [  0.450000000000000,  0.448936564752570,  0.465771933135519 ]
    mass: 69.723000
    reduced_to: 111
  - symbol: Ga # 114
    coordinates: [  0.650000000000000,  0.448936564752570,  0.465771933135519 ]
    mass: 69.723000
    reduced_to: 111
  - symbol: Ga # 115
    coordinates: [  0.850000000000000,  0.448936564752570,  0.465771933135519 ]
    mass: 69.723000
    reduced_to: 111
  - symbol: Ga # 116
    coordinates: [  0.050000000000000,  0.948936564752570,  0.465771933135519 ]
    mass: 69.723000
    reduced_to: 111
  - symbol: Ga # 117
    coordinates: [  0.250000000000000,  0.948936564752570,  0.465771933135519 ]
    mass: 69.723000
    reduced_to: 111
  - symbol: Ga # 118
    coordinates: [  0.450000000000000,  0.948936564752570,  0.465771933135519 ]
    mass: 69.723000
    reduced_to: 111
  - symbol: Ga # 119
    coordinates: [  0.650000000000000,  0.948936564752570,  0.465771933135519 ]
    mass: 69.723000
    reduced_to: 111
  - symbol: Ga # 120
    coordinates: [  0.850000000000000,  0.948936564752570,  0.465771933135519 ]
    mass: 69.723000
    reduced_to: 111
  - symbol: Ga # 121
    coordinates: [  0.150000000000000,  0.396508515624954,  0.784719841669656 ]
    mass: 69.723000
    reduced_to: 121
  - symbol: Ga # 122
    coordinates: [  0.350000000000000,  0.396508515624954,  0.784719841669656 ]
    mass: 69.723000
    reduced_to: 121
  - symbol: Ga # 123
    coordinates: [  0.550000000000000,  0.396508515624954,  0.784719841669656 ]
    mass: 69.723000
    reduced_to: 121
  - symbol: Ga # 124
    coordinates: [  0.750000000000000,  0.396508515624954,  0.784719841669656 ]
    mass: 69.723000
    reduced_to: 121
  - symbol: Ga # 125
    coordinates: [  0.950000000000000,  0.396508515624954,  0.784719841669656 ]
    mass: 69.723000
    reduced_to: 121
  - symbol: Ga # 126
    coordinates: [  0.150000000000000,  0.896508515624954,  0.784719841669656 ]
    mass: 69.723000
    reduced_to: 121
  - symbol: Ga # 127
    coordinates: [  0.350000000000000,  0.896508515624954,  0.784719841669656 ]
    mass: 69.723000
    reduced_to: 121
  - symbol: Ga # 128
    coordinates: [  0.550000000000000,  0.896508515624954,  0.784719841669656 ]
    mass: 69.723000
    reduced_to: 121
  - symbol: Ga # 129
    coordinates: [  0.750000000000000,  0.896508515624954,  0.784719841669656 ]
    mass: 69.723000