phonopy:
  version: "2.21.0"
  frequency_unit_conversion_factor: 15.633302
  symmetry_tolerance: 1.00000e-04

space_group:
  type: "Pnma"
  number: 62
  Hall_symbol: "-P 2ac 2n"

primitive_matrix:
- [  0.000000000000000,  1.000000000000000,  0.000000000000000 ]
- [  0.000000000000000,  0.000000000000000,  1.000000000000000 ]
- [  1.000000000000000,  0.000000000000000, -0.000000000000000 ]

supercell_matrix:
- [   5,   0,   0 ]
- [   0,   5,   0 ]
- [   0,   0,   2 ]

primitive_cell:
  lattice:
  - [     0.000000000000000,     0.000000000000000,    11.787069907890565 ] # a
  - [     4.206022041213538,    -0.000000000000000,     0.000000000000000 ] # b
  - [    -0.000000000000000,     4.565264425006601,     0.000000000000000 ] # c
  points:
  - symbol: Sn # 1
    coordinates: [  0.621008970468450,  0.750000000000000,  0.383969452435516 ]
    mass: 118.710000
  - symbol: Sn # 2
    coordinates: [  0.878991029531550,  0.250000000000000,  0.883969452435516 ]
    mass: 118.710000
  - symbol: Sn # 3
    coordinates: [  0.378991029531550,  0.250000000000000,  0.616030547564484 ]
    mass: 118.710000
  - symbol: Sn # 4
    coordinates: [  0.121008970468450,  0.750000000000000,  0.116030547564484 ]
    mass: 118.710000
  - symbol: Se # 5
    coordinates: [  0.145228233513905,  0.250000000000000,  0.524137384574265 ]
    mass: 78.960000
  - symbol: Se # 6
    coordinates: [  0.645228233513905,  0.250000000000000,  0.975862615425735 ]
    mass: 78.960000
  - symbol: Se # 7
    coordinates: [  0.354771766486094,  0.750000000000000,  0.024137384574265 ]
    mass: 78.960000
  - symbol: Se # 8
    coordinates: [  0.854771766486095,  0.750000000000000,  0.475862615425735 ]
    mass: 78.960000
  reciprocal_lattice: # without 2pi
  - [    -0.000000000000000,    -0.000000000000000,     0.084838726487112 ] # a*
  - [     0.237754341323298,     0.000000000000000,     0.000000000000000 ] # b*
  - [     0.000000000000000,     0.219045362306380,     0.000000000000000 ] # c*

unit_cell:
  lattice:
  - [     4.206022041213538,    -0.000000000000000,     0.000000000000000 ] # a
  - [    -0.000000000000000,     4.565264425006601,     0.000000000000000 ] # b
  - [     0.000000000000000,     0.000000000000000,    11.787069907890565 ] # c
  points:
  - symbol: Sn # 1
    coordinates: [  0.750000000000000,  0.383969452435516,  0.621008970468450 ]
    mass: 118.710000
    reduced_to: 1
  - symbol: Sn # 2
    coordinates: [  0.250000000000000,  0.883969452435516,  0.878991029531550 ]
    mass: 118.710000
    reduced_to: 2
  - symbol: Sn # 3
    coordinates: [  0.250000000000000,  0.616030547564484,  0.378991029531550 ]
    mass: 118.710000
    reduced_to: 3
  - symbol: Sn # 4
    coordinates: [  0.750000000000000,  0.116030547564484,  0.121008970468450 ]
    mass: 118.710000
    reduced_to: 4
  - symbol: Se # 5
    coordinates: [  0.250000000000000,  0.524137384574265,  0.145228233513905 ]
    mass: 78.960000
    reduced_to: 5
  - symbol: Se # 6
    coordinates: [  0.250000000000000,  0.975862615425735,  0.645228233513905 ]
    mass: 78.960000
    reduced_to: 6
  - symbol: Se # 7
    coordinates: [  0.750000000000000,  0.024137384574265,  0.354771766486094 ]
    mass: 78.960000
    reduced_to: 7
  - symbol: Se # 8
    coordinates: [  0.750000000000000,  0.475862615425735,  0.854771766486095 ]
    mass: 78.960000
    reduced_to: 8

supercell:
  lattice:
  - [    21.030110206067690,    -0.000000000000001,     0.000000000000001 ] # a
  - [    -0.000000000000001,    22.826322125033002,     0.000000000000001 ] # b
  - [     0.000000000000000,     0.000000000000000,    23.574139815781130 ] # c
  points:
  - symbol: Sn # 1
    coordinates: [  0.150000000000000,  0.076793890487103,  0.310504485234225 ]
    mass: 118.710000
    reduced_to: 1
  - symbol: Sn # 2
    coordinates: [  0.350000000000000,  0.076793890487103,  0.310504485234225 ]
    mass: 118.710000
    reduced_to: 1
  - symbol: Sn # 3
    coordinates: [  0.550000000000000,  0.076793890487103,  0.310504485234225 ]
    mass: 118.710000
    reduced_to: 1
  - symbol: Sn # 4
    coordinates: [  0.750000000000000,  0.076793890487103,  0.310504485234225 ]
    mass: 118.710000
    reduced_to: 1
  - symbol: Sn # 5
    coordinates: [  0.950000000000000,  0.076793890487103,  0.310504485234225 ]
    mass: 118.710000
    reduced_to: 1
  - symbol: Sn # 6
    coordinates: [  0.150000000000000,  0.276793890487103,  0.310504485234225 ]
    mass: 118.710000
    reduced_to: 1
  - symbol: Sn # 7
    coordinates: [  0.350000000000000,  0.276793890487103,  0.310504485234225 ]
    mass: 118.710000
    reduced_to: 1
  - symbol: Sn # 8
    coordinates: [  0.550000000000000,  0.276793890487103,  0.310504485234225 ]
    mass: 118.710000
    reduced_to: 1
  - symbol: Sn # 9
    coordinates: [  0.750000000000000,  0.276793890487103,  0.310504485234225 ]
    mass: 118.710000
    reduced_to: 1
  - symbol: Sn # 10
    coordinates: [  0.950000000000000,  0.276793890487103,  0.310504485234225 ]
    mass: 118.710000
    reduced_to: 1
  - symbol: Sn # 11
    coordinates: [  0.150000000000000,  0.476793890487103,  0.310504485234225 ]
    mass: 118.710000
    reduced_to: 1
  - symbol: Sn # 12
    coordinates: [  0.350000000000000,  0.476793890487103,  0.310504485234225 ]
    mass: 118.710000
    reduced_to: 1
  - symbol: Sn # 13
    coordinates: [  0.550000000000000,  0.476793890487103,  0.310504485234225 ]
    mass: 118.710000
    reduced_to: 1
  - symbol: Sn # 14
    coordinates: [  0.750000000000000,  0.476793890487103,  0.310504485234225 ]
    mass: 118.710000
    reduced_to: 1
  - symbol: Sn # 15
    coordinates: [  0.950000000000000,  0.476793890487103,  0.310504485234225 ]
    mass: 118.710000
    reduced_to: 1
  - symbol: Sn # 16
    coordinates: [  0.150000000000000,  0.676793890487103,  0.310504485234225 ]
    mass: 118.710000
    reduced_to: 1
  - symbol: Sn # 17
    coordinates: [  0.350000000000000,  0.676793890487103,  0.310504485234225 ]
    mass: 118.710000
    reduced_to: 1
  - symbol: Sn # 18
    coordinates: [  0.550000000000000,  0.676793890487103,  0.310504485234225 ]
    mass: 118.710000
    reduced_to: 1
  - symbol: Sn # 19
    coordinates: [  0.750000000000000,  0.676793890487103,  0.310504485234225 ]
    mass: 118.710000
    reduced_to: 1
  - symbol: Sn # 20
    coordinates: [  0.950000000000000,  0.676793890487103,  0.310504485234225 ]
    mass: 118.710000
    reduced_to: 1
  - symbol: Sn # 21
    coordinates: [  0.150000000000000,  0.876793890487103,  0.310504485234225 ]
    mass: 118.710000
    reduced_to: 1
  - symbol: Sn # 22
    coordinates: [  0.350000000000000,  0.876793890487103,  0.310504485234225 ]
    mass: 118.710000
    reduced_to: 1
  - symbol: Sn # 23
    coordinates: [  0.550000000000000,  0.876793890487103,  0.310504485234225 ]
    mass: 118.710000
    reduced_to: 1
  - symbol: Sn # 24
    coordinates: [  0.750000000000000,  0.876793890487103,  0.310504485234225 ]
    mass: 118.710000
    reduced_to: 1
  - symbol: Sn # 25
    coordinates: [  0.950000000000000,  0.876793890487103,  0.310504485234225 ]
    mass: 118.710000
    reduced_to: 1
  - symbol: Sn # 26
    coordinates: [  0.150000000000000,  0.076793890487103,  0.810504485234225 ]
    mass: 118.710000
    reduced_to: 1
  - symbol: Sn # 27
    coordinates: [  0.350000000000000,  0.076793890487103,  0.810504485234225 ]
    mass: 118.710000
    reduced_to: 1
  - symbol: Sn # 28
    coordinates: [  0.550000000000000,  0.076793890487103,  0.810504485234225 ]
    mass: 118.710000
    reduced_to: 1
  - symbol: Sn # 29
    coordinates: [  0.750000000000000,  0.076793890487103,  0.810504485234225 ]
    mass: 118.710000
    reduced_to: 1
  - symbol: Sn # 30
    coordinates: [  0.950000000000000,  0.076793890487103,  0.810504485234225 ]
    mass: 118.710000
    reduced_to: 1
  - symbol: Sn # 31
    coordinates: [  0.150000000000000,  0.276793890487103,  0.810504485234225 ]
    mass: 118.710000
    reduced_to: 1
  - symbol: Sn # 32
    coordinates: [  0.350000000000000,  0.276793890487103,  0.810504485234225 ]
    mass: 118.710000
    reduced_to: 1
  - symbol: Sn # 33
    coordinates: [  0.550000000000000,  0.276793890487103,  0.810504485234225 ]
    mass: 118.710000
    reduced_to: 1
  - symbol: Sn # 34
    coordinates: [  0.750000000000000,  0.276793890487103,  0.810504485234225 ]
    mass: 118.710000
    reduced_to: 1
  - symbol: Sn # 35
    coordinates: [  0.950000000000000,  0.276793890487103,  0.810504485234225 ]
    mass: 118.710000
    reduced_to: 1
  - symbol: Sn # 36
    coordinates: [  0.150000000000000,  0.476793890487103,  0.810504485234225 ]
    mass: 118.710000
    reduced_to: 1
  - symbol: Sn # 37
    coordinates: [  0.350000000000000,  0.476793890487103,  0.810504485234225 ]
    mass: 118.710000
    reduced_to: 1
  - symbol: Sn # 38
    coordinates: [  0.550000000000000,  0.476793890487103,  0.810504485234225 ]
    mass: 118.710000
    reduced_to: 1
  - symbol: Sn # 39
    coordinates: [  0.750000000000000,  0.476793890487103,  0.810504485234225 ]
    mass: 118.710000
    reduced_to: 1
  - symbol: Sn # 40
    coordinates: [  0.950000000000000,  0.476793890487103,  0.810504485234225 ]
    mass: 118.710000
    reduced_to: 1
  - symbol: Sn # 41
    coordinates: [  0.150000000000000,  0.676793890487103,  0.810504485234225 ]
    mass: 118.710000
    reduced_to: 1
  - symbol: Sn # 42
    coordinates: [  0.350000000000000,  0.676793890487103,  0.810504485234225 ]
    mass: 118.710000
    reduced_to: 1
  - symbol: Sn # 43
    coordinates: [  0.550000000000000,  0.676793890487103,  0.810504485234225 ]
    mass: 118.710000
    reduced_to: 1
  - symbol: Sn # 44
    coordinates: [  0.750000000000000,  0.676793890487103,  0.810504485234225 ]
    mass: 118.710000
    reduced_to: 1
  - symbol: Sn # 45
    coordinates: [  0.950000000000000,  0.676793890487103,  0.810504485234225 ]
    mass: 118.710000
    reduced_to: 1
  - symbol: Sn # 46
    coordinates: [  0.150000000000000,  0.876793890487103,  0.810504485234225 ]
    mass: 118.710000
    reduced_to: 1
  - symbol: Sn # 47
    coordinates: [  0.350000000000000,  0.876793890487103,  0.810504485234225 ]
    mass: 118.710000
    reduced_to: 1
  - symbol: Sn # 48
    coordinates: [  0.550000000000000,  0.876793890487103,  0.810504485234225 ]
    mass: 118.710000
    reduced_to: 1
  - symbol: Sn # 49
    coordinates: [  0.750000000000000,  0.876793890487103,  0.810504485234225 ]
    mass: 118.710000
    reduced_to: 1
  - symbol: Sn # 50
    coordinates: [  0.950000000000000,  0.876793890487103,  0.810504485234225 ]
    mass: 118.710000
    reduced_to: 1
  - symbol: Sn # 51
    coordinates: [  0.050000000000000,  0.176793890487103,  0.439495514765775 ]
    mass: 118.710000
    reduced_to: 51
  - symbol: Sn # 52
    coordinates: [  0.250000000000000,  0.176793890487103,  0.439495514765775 ]
    mass: 118.710000
    reduced_to: 51
  - symbol: Sn # 53
    coordinates: [  0.450000000000000,  0.176793890487103,  0.439495514765775 ]
    mass: 118.710000
    reduced_to: 51
  - symbol: Sn # 54
    coordinates: [  0.650000000000000,  0.176793890487103,  0.439495514765775 ]
    mass: 118.710000
    reduced_to: 51
  - symbol: Sn # 55
    coordinates: [  0.850000000000000,  0.176793890487103,  0.439495514765775 ]
    mass: 118.710000
    reduced_to: 51
  - symbol: Sn # 56
    coordinates: [  0.050000000000000,  0.376793890487103,  0.439495514765775 ]
    mass: 118.710000
    reduced_to: 51
  - symbol: Sn # 57
    coordinates: [  0.250000000000000,  0.376793890487103,  0.439495514765775 ]
    mass: 118.710000
    reduced_to: 51
  - symbol: Sn # 58
    coordinates: [  0.450000000000000,  0.376793890487103,  0.439495514765775 ]
    mass: 118.710000
    reduced_to: 51
  - symbol: Sn # 59
    coordinates: [  0.650000000000000,  0.376793890487103,  0.439495514765775 ]
    mass: 118.710000
    reduced_to: 51
  - symbol: Sn # 60
    coordinates: [  0.850000000000000,  0.376793890487103,  0.439495514765775 ]
    mass: 118.710000
    reduced_to: 51
  - symbol: Sn # 61
    coordinates: [  0.050000000000000,  0.576793890487103,  0.439495514765775 ]
    mass: 118.710000
    reduced_to: 51
  - symbol: Sn # 62
    coordinates: [  0.250000000000000,  0.576793890487103,  0.439495514765775 ]
    mass: 118.710000
    reduced_to: 51
  - symbol: Sn # 63
    coordinates: [  0.450000000000000,  0.576793890487103,  0.439495514765775 ]
    mass: 118.710000
    reduced_to: 51
  - symbol: Sn # 64
    coordinates: [  0.650000000000000,  0.576793890487103,  0.439495514765775 ]
    mass: 118.710000
    reduced_to: 51
  - symbol: Sn # 65
    coordinates: [  0.850000000000000,  0.576793890487103,  0.439495514765775 ]
    mass: 118.710000
    reduced_to: 51
  - symbol: Sn # 66
    coordinates: [  0.050000000000000,  0.776793890487103,  0.439495514765775 ]
    mass: 118.710000
    reduced_to: 51
  - symbol: Sn # 67
    coordinates: [  0.250000000000000,  0.776793890487103,  0.439495514765775 ]
    mass: 118.710000
    reduced_to: 51
  - symbol: Sn # 68
    coordinates: [  0.450000000000000,  0.776793890487103,  0.439495514765775 ]
    mass: 118.710000
    reduced_to: 51
  - symbol: Sn # 69
    coordinates: [  0.650000000000000,  0.776793890487103,  0.439495514765775 ]
    mass: 118.710000
    reduced_to: 51
  - symbol: Sn # 70
    coordinates: [  0.850000000000000,  0.776793890487103,  0.439495514765775 ]
    mass: 118.710000
    reduced_to: 51
  - symbol: Sn # 71
    coordinates: [  0.050000000000000,  0.976793890487103,  0.439495514765775 ]
    mass: 118.710000
    reduced_to: 51
  - symbol: Sn # 72
    coordinates: [  0.250000000000000,  0.976793890487103,  0.439495514765775 ]
    mass: 118.710000
    reduced_to: 51
  - symbol: Sn # 73
    coordinates: [  0.450000000000000,  0.976793890487103,  0.439495514765775 ]
    mass: 118.710000
    reduced_to: 51
  - symbol: Sn # 74
    coordinates: [  0.650000000000000,  0.976793890487103,  0.439495514765775 ]
    mass: 118.710000
    reduced_to: 51
  - symbol: Sn # 75
    coordinates: [  0.850000000000000,  0.976793890487103,  0.439495514765775 ]
    mass: 118.710000
    reduced_to: 51
  - symbol: Sn # 76
    coordinates: [  0.050000000000000,  0.176793890487103,  0.939495514765775 ]
    mass: 118.710000
    reduced_to: 51
  - symbol: Sn # 77
    coordinates: [  0.250000000000000,  0.176793890487103,  0.939495514765775 ]
    mass: 118.710000
    reduced_to: 51
  - symbol: Sn # 78
    coordinates: [  0.450000000000000,  0.176793890487103,  0.939495514765775 ]
    mass: 118.710000
    reduced_to: 51
  - symbol: Sn # 79
    coordinates: [  0.650000000000000,  0.176793890487103,  0.939495514765775 ]
    mass: 118.710000
    reduced_to: 51
  - symbol: Sn # 80
    coordinates: [  0.850000000000000,  0.176793890487103,  0.939495514765775 ]
    mass: 118.710000
    reduced_to: 51
  - symbol: Sn # 81
    coordinates: [  0.050000000000000,  0.376793890487103,  0.939495514765775 ]
    mass: 118.710000
    reduced_to: 51
  - symbol: Sn # 82
    coordinates: [  0.250000000000000,  0.376793890487103,  0.939495514765775 ]
    mass: 118.710000
    reduced_to: 51
  - symbol: Sn # 83
    coordinates: [  0.450000000000000,  0.376793890487103,  0.939495514765775 ]
    mass: 118.710000
    reduced_to: 51
  - symbol: Sn # 84
    coordinates: [  0.650000000000000,  0.376793890487103,  0.939495514765775 ]
    mass: 118.710000
    reduced_to: 51
  - symbol: Sn # 85
    coordinates: [  0.850000000000000,  0.376793890487103,  0.939495514765775 ]
    mass: 118.710000
    reduced_to: 51
  - symbol: Sn # 86
    coordinates: [  0.050000000000000,  0.576793890487103,  0.939495514765775 ]
    mass: 118.710000
    reduced_to: 51
  - symbol: Sn # 87
    coordinates: [  0.250000000000000,  0.576793890487103,  0.939495514765775 ]
    mass: 118.710000
    reduced_to: 51
  - symbol: Sn # 88
    coordinates: [  0.450000000000000,  0.576793890487103,  0.939495514765775 ]
    mass: 118.710000
    reduced_to: 51
  - symbol: Sn # 89
    coordinates: [  0.650000000000000,  0.576793890487103,  0.939495514765775 ]
    mass: 118.710000
    reduced_to: 51
  - symbol: Sn # 90
    coordinates: [  0.850000000000000,  0.576793890487103,  0.939495514765775 ]
    mass: 118.710000
    reduced_to: 51
  - symbol: Sn # 91
    coordinates: [  0.050000000000000,  0.776793890487103,  0.939495514765775 ]
    mass: 118.710000
    reduced_to: 51
  - symbol: Sn # 92
    coordinates: [  0.250000000000000,  0.776793890487103,  0.939495514765775 ]
    mass: 118.710000
    reduced_to: 51
  - symbol: Sn # 93
    coordinates: [  0.450000000000000,  0.776793890487103,  0.939495514765775 ]
    mass: 118.710000
    reduced_to: 51
  - symbol: Sn # 94
    coordinates: [  0.650000000000000,  0.776793890487103,  0.939495514765775 ]
    mass: 118.710000
    reduced_to: 51
  - symbol: Sn # 95
    coordinates: [  0.850000000000000,  0.776793890487103,  0.939495514765775 ]
    mass: 118.710000
    reduced_to: 51
  - symbol: Sn # 96
    coordinates: [  0.050000000000000,  0.976793890487103,  0.939495514765775 ]
    mass: 118.710000
    reduced_to: 51
  - symbol: Sn # 97
    coordinates: [  0.250000000000000,  0.976793890487103,  0.939495514765775 ]
    mass: 118.710000
    reduced_to: 51
  - symbol: Sn # 98
    coordinates: [  0.450000000000000,  0.976793890487103,  0.939495514765775 ]
    mass: 118.710000
    reduced_to: 51
  - symbol: Sn # 99
    coordinates: [  0.650000000000000,  0.976793890487103,  0.939495514765775 ]
    mass: 118.710000
    reduced_to: 51
  - symbol: Sn # 100
    coordinates: [  0.850000000000000,  0.976793890487103,  0.939495514765775 ]
    mass: 118.710000
    reduced_to: 51
  - symbol: Sn # 101
    coordinates: [  0.050000000000000,  0.123206109512897,  0.189495514765775 ]
    mass: 118.710000
    reduced_to: 101
  - symbol: Sn # 102
    coordinates: [  0.250000000000000,  0.123206109512897,  0.189495514765775 ]
    mass: 118.710000
    reduced_to: 101
  - symbol: Sn # 103
    coordinates: [  0.450000000000000,  0.123206109512897,  0.189495514765775 ]
    mass: 118.710000
    reduced_to: 101
  - symbol: Sn # 104
    coordinates: [  0.650000000000000,  0.123206109512897,  0.189495514765775 ]
    mass: 118.710000
    reduced_to: 101
  - symbol: Sn # 105
    coordinates: [  0.850000000000000,  0.123206109512897,  0.189495514765775 ]
    mass: 118.710000
    reduced_to: 101
  - symbol: Sn # 106
    coordinates: [  0.050000000000000,  0.323206109512897,  0.189495514765775 ]
    mass: 118.710000
    reduced_to: 101
  - symbol: Sn # 107
    coordinates: [  0.250000000000000,  0.323206109512897,  0.189495514765775 ]
    mass: 118.710000
    reduced_to: 101
  - symbol: Sn # 108
    coordinates: [  0.450000000000000,  0.323206109512897,  0.189495514765775 ]
    mass: 118.710000
    reduced_to: 101
  - symbol: Sn # 109
    coordinates: [  0.650000000000000,  0.323206109512897,  0.189495514765775 ]
    mass: 118.710000
    reduced_to: 101
  - symbol: Sn # 110
    coordinates: [  0.850000000000000,  0.323206109512897,  0.189495514765775 ]
    mass: 118.710000
    reduced_to: 101
  - symbol: Sn # 111
    coordinates: [  0.050000000000000,  0.523206109512897,  0.189495514765775 ]
    mass: 118.710000
    reduced_to: 101
  - symbol: Sn # 112
    coordinates: [  0.250000000000000,  0.523206109512897,  0.189495514765775 ]
    mass: 118.710000
    reduced_to: 101
  - symbol: Sn # 113
    coordinates: [  0.450000000000000,  0.523206109512897,  0.189495514765775 ]
    mass: 118.710000
    reduced_to: 101
  - symbol: Sn # 114
    coordinates: [  0.650000000000000,  0.523206109512897,  0.189495514765775 ]
    mass: 118.710000
    reduced_to: 101
  - symbol: Sn # 115
    coordinates: [  0.850000000000000,  0.523206109512897,  0.189495514765775 ]
    mass: 118.710000
    reduced_to: 101
  - symbol: Sn # 116
    coordinates: [  0.050000000000000,  0.723206109512897,  0.189495514765775 ]
    mass: 118.710000
    reduced_to: 101
  - symbol: Sn # 117
    coordinates: [  0.250000000000000,  0.723206109512897,  0.189495514765775 ]
    mass: 118.710000
    reduced_to: 101
  - symbol: Sn # 118
    coordinates: [  0.450000000000000,  0.723206109512897,  0.189495514765775 ]
    mass: 118.710000
    reduced_to: 101
  - symbol: Sn # 119
    coordinates: [  0.650000000000000,  0.723206109512897,  0.189495514765775 ]
    mass: 118.710000
    reduced_to: 101
  - symbol: Sn # 120
    coordinates: [  0.850000000000000,  0.723206109512897,  0.189495514765775 ]
    mass: 118.710000
    reduced_to: 101
  - symbol: Sn # 121
    coordinates: [  0.050000000000000,  0.923206109512897,  0.189495514765775 ]
    mass: 118.710000
    reduced_to: 101
  - symbol: Sn # 122
    coordinates: [  0.250000000000000,  0.923206109512897,  0.189495514765775 ]
    mass: 118.710000
    reduced_to: 101
  - symbol: Sn # 123
    coordinates: [  0.450000000000000,  0.923206109512897,  0.189495514765775 ]
    mass: 118.710000
    reduced_to: 101
  - symbol: Sn # 124
    coordinates: [  0.650000000000000,  0.923206109512897,  0.189495514765775 ]
    mass: 118.710000
    reduced_to: 101
  - symbol: Sn # 125
    coordinates: [  0.850000000000000,  0.923206109512897,  0.189495514765775 ]
    mass: 118.710000
    reduced_to: 101
  - symbol: Sn # 126
    coordinates: [  0.050000000000000,  0.123206109512897,  0.689495514765775 ]
    mass: 118.710000
    reduced_to: 101
  - symbol: Sn # 127
    coordinates: [  0.250000000000000,  0.123206109512897,  0.689495514765775 ]
    mass: 118.710000
    reduced_to: 101
  - symbol: Sn # 128
    coordinates: [  0.450000000000000,  0.123206109512897,  0.689495514765775 ]
    mass: 118.710000
    reduced_to: 101
  - symbol: Sn # 129
    coordinates: [  0.650000000000000,  0.123206109512897,  0.689495514765775 ]
    mass: 118.710000
    reduced_to: 101
  - symbol: Sn # 130
    coordinates: [  0.850000000000000,  0.123206109512897,  0.689495514765775 ]
    mass: 118.710000
    reduced_to: 101
  - symbol: Sn # 131
    coordinates: [  0.050000000000000,  0.323206109512897,  0.689495514765775 ]
    mass: 118.710000
    reduced_to: 101
  - symbol: Sn # 132
    coordinates: [  0.250000000000000,  0.323206109512897,  0.689495514765775 ]
    mass: 118.710000
    reduced_to: 101
  - symbol: Sn # 133
    coordinates: [  0.450000000000000,  0.323206109512897,  0.689495514765775 ]
    mass: 118.710000
    reduced_to: 101
  - symbol: Sn # 134
    coordinates: [  0.650000000000000,  0.323206109512897,  0.689495514765775 ]
    mass: 118.710000
    reduced_to: 101
  - symbol: Sn # 135
    coordinates: [  0.850000000000000,  0.323206109512897,  0.689495514765775 ]
    mass: 118.710000
    reduced_to: 101
  - symbol: Sn # 136
    coordinates: [  0.050000000000000,  0.523206109512897,  0.689495514765775 ]
    mass: 118.710000
    reduced_to: 101
  - symbol: Sn # 137
    coordinates: [  0.250000000000000,  0.523206109512897,  0.689495514765775 ]
    mass: 118.710000
    reduced_to: 101
  - symbol: Sn # 138
    coordinates: [  0.450000000000000,  0.523206109512897,  0.689495514765775 ]
    mass: 118.710000
    reduced_to: 101
  - symbol: Sn # 139
    coordinates: [  0.650000000000000,  0.523206109512897,  0.689495514765775 ]
    mass: 118.710000
    reduced_to: 101
  - symbol: Sn # 140
    coordinates: [  0.850000000000000,  0.523206109512897,  0.689495514765775 ]
    mass: 118.710000
    reduced_to: 101
  - symbol: Sn # 141
    coordinates: [  0.050000000000000,  0.723206109512897,  0.689495514765775 ]
    mass: 118.710000
    reduced_to: 101
  - symbol: Sn # 142
    coordinates: [  0.250000000000000,  0.723206109512897,  0.689495514765775 ]
    mass: 118.710000
    reduced_to: 101
  - symbol: Sn # 143
    coordinates: [  0.450000000000000,  0.723206109512897,  0.689495514765775 ]
    mass: 118.710000
    reduced_to: 101
  - symbol: Sn # 144
    coordinates: [  0.650000000000000,  0.723206109512897,  0.689495514765775 ]
    mass: 118.710000
    reduced_to: 101
  - symbol: Sn # 145
    coordinates: [  0.850000000000000,  0.723206109512897,  0.689495514765775 ]
    mass: 118.710000
    reduced_to: 101
  - symbol: Sn # 146
    coordinates: [  0.050000000000000,  0.923206109512897,  0.689495514765775 ]
    mass: 118.710000
    reduced_to: 101
  - symbol: Sn # 147
    coordinates: [  0.250000000000000,  0.923206109512897,  0.689495514765775 ]
    mass: 118.710000
    reduced_to: 101
  - symbol: Sn # 148
    coordinates: [  0.450000000000000,  0.923206109512897,  0.689495514765775 ]
    mass: 118.710000
    reduced_to: 101
  - symbol: Sn # 149
    coordinates: [  0.650000000000000,  0.923206109512897,  0.689495514765775 ]
    mass: 118.710000
    reduced_to: 101
  - symbol: Sn # 150
    coordinates: [  0.850000000000000,  0.923206109512897,  0.689495514765775 ]
    mass: 118.710000
    reduced_to: 101
  - symbol: Sn # 151
    coordinates: [  0.150000000000000,  0.023206109512897,  0.060504485234225 ]
    mass: 118.710000
    reduced_to: 151
  - symbol: Sn # 152
    coordinates: [  0.350000000000000,  0.023206109512897,  0.060504485234225 ]
    mass: 118.710000
    reduced_to: 151
  - symbol: Sn # 153
    coordinates: [  0.550000000000000,  0.023206109512897,  0.060504485234225 ]
    mass: 118.710000
    reduced_to: 151
  - symbol: Sn # 154
    coordinates: [  0.750000000000000,  0.023206109512897,  0.060504485234225 ]
    mass: 118.710000
    reduced_to: 151
  - symbol: Sn # 155
    coordinates: [  0.950000000000000,  0.023206109512897,  0.060504485234225 ]
    mass: 118.710000
    reduced_to: 151
  - symbol: Sn # 156
    coordinates: [  0.150000000000000,  0.223206109512897,  0.060504485234225 ]
    mass: 118.710000
    reduced_to: 151
  - symbol: Sn # 157
    coordinates: [  0.350000000000000,  0.223206109512897,  0.060504485234225 ]
    mass: 118.710000
    reduced_to: 151
  - symbol: Sn # 158
    coordinates: [  0.550000000000000,  0.223206109512897,  0.060504485234225 ]
    mass: 118.710000
    reduced_to: 151
  - symbol: Sn # 159
    coordinates: [  0.750000000000000,  0.223206109512897,  0.060504485234225 ]
    mass: 118.710000
    reduced_to: 151
  - symbol: Sn # 160
    coordinates: [  0.950000000000000,  0.223206109512897,  0.060504485234225 ]
    mass: 118.710000
    reduced_to: 151
  - symbol: Sn # 161
    coordinates: [  0.150000000000000,  0.423206109512897,  0.060504485234225 ]
    mass: 118.710000
    reduced_to: 151
  - symbol: Sn # 162
    coordinates: [  0.350000000000000,  0.423206109512897,  0.060504485234225 ]
    mass: 118.710000
    reduced_to: 151
  - symbol: Sn # 163
    coordinates: [  0.550000000000000,  0.423206109512897,  0.060504485234225 ]
    mass: 118.710000
    reduced_to: 151
  - symbol: Sn # 164
    coordinates: [  0.750000000000000,  0.423206109512897,  0.060504485234225 ]
    mass: 118.710000
    reduced_to: 151
  - symbol: Sn # 165
    coordinates: [  0.950000000000000,  0.423206109512897,  0.060504485234225 ]
    mass: 118.710000
    reduced_to: 151
  - symbol: Sn # 166
    coordinates: [  0.150000000000000,  0.623206109512897,  0.060504485234225 ]
    mass: 118.710000
    reduced_to: 151
  - symbol: Sn # 167
    coordinates: [  0.350000000000000,  0.623206109512897,  0.060504485234225 ]
    mass: 118.710000
    reduced_to: 151
  - symbol: Sn # 168
    coordinates: [  0.550000000000000,  0.623206109512897,  0.060504485234225 ]
    mass: 118.710000
    reduced_to: 151
  - symbol: Sn # 169
    coordinates: [  0.750000000000000,  0.623206109512897,  0.060504485234225 ]
    mass: 118.710000
    reduced_to: 151
  - symbol: Sn # 170
    coordinates: [  0.950000000000000,  0.623206109512897,  0.060504485234225 ]
    mass: 118.710000
    reduced_to: 151
  - symbol: Sn # 171
    coordinates: [  0.150000000000000,  0.823206109512897,  0.060504485234225 ]
    mass: 118.710000
    reduced_to: 151
  - symbol: Sn # 172
    coordinates: [  0.350000000000000,  0.823206109512897,  0.060504485234225 ]
    mass: 118.710000
    reduced_to: 151
  - symbol: Sn # 173
    coordinates: [  0.550000000000000,  0.823206109512897,  0.060504485234225 ]
    mass: 118.710000
    reduced_to: 151
  - symbol: Sn # 174
    coordinates: [  0.750000000000000,  0.823206109512897,  0.060504485234225 ]
    mass: 118.710000
    reduced_to: 151
  - symbol: Sn # 175
    coordinates: [  0.950000000000000,  0.823206109512897,  0.060504485234225 ]
    mass: 118.710000
    reduced_to: 151
  - symbol: Sn # 176
    coordinates: [  0.150000000000000,  0.023206109512897,  0.560504485234225 ]
    mass: 118.710000
    reduced_to: 151
  - symbol: Sn # 177
    coordinates: [  0.350000000000000,  0.023206109512897,  0.560504485234225 ]
    mass: 118.710000
    reduced_to: 151
  - symbol: Sn # 178
    coordinates: [  0.550000000000000,  0.023206109512897,  0.560504485234225 ]
    mass: 118.710000
    reduced_to: 151
  - symbol: Sn # 179
    coordinates: [  0.750000000000000,  0.023206109512897,  0.560504485234225 ]
    mass: 118.710000
    reduced_to: 151
  - symbol: Sn # 180
    coordinates: [  0.950000000000000,  0.023206109512897,  0.560504485234225 ]
    mass: 118.710000
    reduced_to: 151
  - symbol: Sn # 181
    coordinates: [  0.150000000000000,  0.223206109512897,  0.560504485234225 ]
    mass: 118.710000
    reduced_to: 151
  - symbol: Sn # 182
    coordinates: [  0.350000000000000,  0.223206109512897,  0.560504485234225 ]
    mass: 118.710000
    reduced_to: 151
  - symbol: Sn # 183
    coordinates: [  0.550000000000000,  0.223206109512897,  0.560504485234225 ]
    mass: 118.710000
    reduced_to: 151
  - symbol: Sn # 184
    coordinates: [  0.750000000000000,  0.223206109512897,  0.560504485234225 ]
    mass: 118.710000
    reduced_to: 151
  - symbol: Sn # 185
    coordinates: [  0.950000000000000,  0.223206109512897,  0.560504485234225 ]
    mass: 118.710000
    reduced_to: 151
  - symbol: Sn # 186
    coordinates: [  0.150000000000000,  0.423206109512897,  0.560504485234225 ]
    mass: 118.710000
    reduced_to: 151
  - symbol: Sn # 187
    coordinates: [  0.350000000000000,  0.423206109512897,  0.560504485234225 ]
    mass: 118.710000
    reduced_to: 151
  - symbol: Sn # 188