phonopy:
  version: "2.21.0"
  frequency_unit_conversion_factor: 15.633302
  symmetry_tolerance: 1.00000e-04

space_group:
  type: "R-3m"
  number: 166
  Hall_symbol: "-R 3 2\""

primitive_matrix:
- [  0.666666666666667, -0.333333333333333, -0.333333333333333 ]
- [  0.333333333333333,  0.333333333333333, -0.666666666666667 ]
- [  0.333333333333333,  0.333333333333333,  0.333333333333333 ]

supercell_matrix:
- [   5,   5,   0 ]
- [  -3,   3,   0 ]
- [   0,   0,   1 ]

primitive_cell:
  lattice:
  - [     2.093934249979772,    -1.208933502891198,    10.472925059633114 ] # a
  - [    -0.000000000000001,     2.417867005782396,    10.472925059633114 ] # b
  - [    -2.093934249979772,    -1.208933502891197,    10.472925059633114 ] # c
  points:
  - symbol: Bi # 1
    coordinates: [  0.395331420334771,  0.395331420334779,  0.395331420334771 ]
    mass: 208.980400
  - symbol: Bi # 2
    coordinates: [  0.604668579665228,  0.604668579665236,  0.604668579665228 ]
    mass: 208.980400
  - symbol: Se # 3
    coordinates: [  0.000000000000000,  0.000000000000000,  0.000000000000000 ]
    mass: 78.960000
  - symbol: Se # 4
    coordinates: [  0.221524696626108,  0.221524696626101,  0.221524696626108 ]
    mass: 78.960000
  - symbol: Se # 5
    coordinates: [  0.778475303373891,  0.778475303373892,  0.778475303373891 ]
    mass: 78.960000
  reciprocal_lattice: # without 2pi
  - [     0.238784957075338,    -0.137862559245880,     0.031828102601262 ] # a*
  - [     0.000000000000000,     0.275725118491759,     0.031828102601262 ] # b*
  - [    -0.238784957075338,    -0.137862559245880,     0.031828102601262 ] # c*

unit_cell:
  lattice:
  - [     2.093934249979773,    -3.626800508673594,    -0.000000000000000 ] # a
  - [     2.093934249979771,     3.626800508673593,    -0.000000000000000 ] # b
  - [    -0.000000000000000,     0.000000000000001,    31.418775178899338 ] # c
  points:
  - symbol: Bi # 1
    coordinates: [  0.666666666666664,  0.333333333333336,  0.728664753668107 ]
    mass: 208.980400
    reduced_to: 1
  - symbol: Bi # 2
    coordinates: [  0.666666666666664,  0.333333333333336,  0.938001912998565 ]
    mass: 208.980400
    reduced_to: 2
  - symbol: Bi # 3
    coordinates: [  0.333333333333336,  0.666666666666664,  0.061998087001428 ]
    mass: 208.980400
    reduced_to: 1
  - symbol: Bi # 4
    coordinates: [  0.333333333333336,  0.666666666666664,  0.271335246331900 ]
    mass: 208.980400
    reduced_to: 2
  - symbol: Bi # 5
    coordinates: [ -0.000000000000000, -0.000000000000000,  0.395331420334764 ]
    mass: 208.980400
    reduced_to: 1
  - symbol: Bi # 6
    coordinates: [  0.000000000000000,  0.000000000000000,  0.604668579665229 ]
    mass: 208.980400
    reduced_to: 2
  - symbol: Se # 7
    coordinates: [ -0.000000000000000, -0.000000000000000, -0.000000000000000 ]
    mass: 78.960000
    reduced_to: 7
  - symbol: Se # 8
    coordinates: [  0.333333333333336,  0.666666666666664,  0.888191363292773 ]
    mass: 78.960000
    reduced_to: 8
  - symbol: Se # 9
    coordinates: [  0.000000000000000, -0.000000000000000,  0.778475303373892 ]
    mass: 78.960000
    reduced_to: 9
  - symbol: Se # 10
    coordinates: [  0.666666666666664,  0.333333333333336,  0.333333333333336 ]
    mass: 78.960000
    reduced_to: 7
  - symbol: Se # 11
    coordinates: [ -0.000000000000000,  0.000000000000000,  0.221524696626108 ]
    mass: 78.960000
    reduced_to: 8
  - symbol: Se # 12
    coordinates: [  0.666666666666664,  0.333333333333336,  0.111808636707227 ]
    mass: 78.960000
    reduced_to: 9
  - symbol: Se # 13
    coordinates: [  0.333333333333336,  0.666666666666664,  0.666666666666664 ]
    mass: 78.960000
    reduced_to: 7
  - symbol: Se # 14
    coordinates: [  0.666666666666664,  0.333333333333336,  0.554858029959437 ]
    mass: 78.960000
    reduced_to: 8
  - symbol: Se # 15
    coordinates: [  0.333333333333336,  0.666666666666664,  0.445141970040563 ]
    mass: 78.960000
    reduced_to: 9

supercell:
  lattice:
  - [     4.187868499959553,   -29.014404069388746,     0.000000000000000 ] # a
  - [    16.751473999838179,    -7.253601017347192,     0.000000000000000 ] # b
  - [    -0.000000000000000,     0.000000000000001,    31.418775178899338 ] # c
  points:
  - symbol: Bi # 1
    coordinates: [  0.011111111111110,  0.122222222222222,  0.728664753668107 ]
    mass: 208.980400
    reduced_to: 1
  - symbol: Bi # 2
    coordinates: [  0.111111111111110,  0.222222222222222,  0.728664753668107 ]
    mass: 208.980400
    reduced_to: 1
  - symbol: Bi # 3
    coordinates: [  0.211111111111110,  0.322222222222222,  0.728664753668107 ]
    mass: 208.980400
    reduced_to: 1
  - symbol: Bi # 4
    coordinates: [  0.311111111111111,  0.422222222222222,  0.728664753668107 ]
    mass: 208.980400
    reduced_to: 1
  - symbol: Bi # 5
    coordinates: [  0.411111111111110,  0.522222222222222,  0.728664753668107 ]
    mass: 208.980400
    reduced_to: 1
  - symbol: Bi # 6
    coordinates: [  0.511111111111111,  0.622222222222222,  0.728664753668107 ]
    mass: 208.980400
    reduced_to: 1
  - symbol: Bi # 7
    coordinates: [  0.611111111111111,  0.722222222222222,  0.728664753668107 ]
    mass: 208.980400
    reduced_to: 1
  - symbol: Bi # 8
    coordinates: [  0.711111111111111,  0.822222222222222,  0.728664753668107 ]
    mass: 208.980400
    reduced_to: 1
  - symbol: Bi # 9
    coordinates: [  0.811111111111111,  0.922222222222222,  0.728664753668107 ]
    mass: 208.980400
    reduced_to: 1
  - symbol: Bi # 10
    coordinates: [  0.911111111111111,  0.022222222222222,  0.728664753668107 ]
    mass: 208.980400
    reduced_to: 1
  - symbol: Bi # 11
    coordinates: [  0.844444444444444,  0.288888888888889,  0.728664753668107 ]
    mass: 208.980400
    reduced_to: 1
  - symbol: Bi # 12
    coordinates: [  0.944444444444444,  0.388888888888889,  0.728664753668107 ]
    mass: 208.980400
    reduced_to: 1
  - symbol: Bi # 13
    coordinates: [  0.044444444444444,  0.488888888888889,  0.728664753668107 ]
    mass: 208.980400
    reduced_to: 1
  - symbol: Bi # 14
    coordinates: [  0.144444444444444,  0.588888888888889,  0.728664753668107 ]
    mass: 208.980400
    reduced_to: 1
  - symbol: Bi # 15
    coordinates: [  0.244444444444444,  0.688888888888889,  0.728664753668107 ]
    mass: 208.980400
    reduced_to: 1
  - symbol: Bi # 16
    coordinates: [  0.344444444444444,  0.788888888888889,  0.728664753668107 ]
    mass: 208.980400
    reduced_to: 1
  - symbol: Bi # 17
    coordinates: [  0.444444444444444,  0.888888888888889,  0.728664753668107 ]
    mass: 208.980400
    reduced_to: 1
  - symbol: Bi # 18
    coordinates: [  0.544444444444444,  0.988888888888889,  0.728664753668107 ]
    mass: 208.980400
    reduced_to: 1
  - symbol: Bi # 19
    coordinates: [  0.644444444444444,  0.088888888888889,  0.728664753668107 ]
    mass: 208.980400
    reduced_to: 1
  - symbol: Bi # 20
    coordinates: [  0.744444444444444,  0.188888888888889,  0.728664753668107 ]
    mass: 208.980400
    reduced_to: 1
  - symbol: Bi # 21
    coordinates: [  0.677777777777777,  0.455555555555556,  0.728664753668107 ]
    mass: 208.980400
    reduced_to: 1
  - symbol: Bi # 22
    coordinates: [  0.777777777777777,  0.555555555555556,  0.728664753668107 ]
    mass: 208.980400
    reduced_to: 1
  - symbol: Bi # 23
    coordinates: [  0.877777777777777,  0.655555555555556,  0.728664753668107 ]
    mass: 208.980400
    reduced_to: 1
  - symbol: Bi # 24
    coordinates: [  0.977777777777777,  0.755555555555556,  0.728664753668107 ]
    mass: 208.980400
    reduced_to: 1
  - symbol: Bi # 25
    coordinates: [  0.077777777777777,  0.855555555555556,  0.728664753668107 ]
    mass: 208.980400
    reduced_to: 1
  - symbol: Bi # 26
    coordinates: [  0.177777777777777,  0.955555555555556,  0.728664753668107 ]
    mass: 208.980400
    reduced_to: 1
  - symbol: Bi # 27
    coordinates: [  0.277777777777777,  0.055555555555556,  0.728664753668107 ]
    mass: 208.980400
    reduced_to: 1
  - symbol: Bi # 28
    coordinates: [  0.377777777777777,  0.155555555555556,  0.728664753668107 ]
    mass: 208.980400
    reduced_to: 1
  - symbol: Bi # 29
    coordinates: [  0.477777777777777,  0.255555555555556,  0.728664753668107 ]
    mass: 208.980400
    reduced_to: 1
  - symbol: Bi # 30
    coordinates: [  0.577777777777777,  0.355555555555556,  0.728664753668107 ]
    mass: 208.980400
    reduced_to: 1
  - symbol: Bi # 31
    coordinates: [  0.011111111111110,  0.122222222222222,  0.938001912998565 ]
    mass: 208.980400
    reduced_to: 31
  - symbol: Bi # 32
    coordinates: [  0.111111111111110,  0.222222222222222,  0.938001912998565 ]
    mass: 208.980400
    reduced_to: 31
  - symbol: Bi # 33
    coordinates: [  0.211111111111110,  0.322222222222222,  0.938001912998565 ]
    mass: 208.980400
    reduced_to: 31
  - symbol: Bi # 34
    coordinates: [  0.311111111111111,  0.422222222222222,  0.938001912998565 ]
    mass: 208.980400
    reduced_to: 31
  - symbol: Bi # 35
    coordinates: [  0.411111111111110,  0.522222222222222,  0.938001912998565 ]
    mass: 208.980400
    reduced_to: 31
  - symbol: Bi # 36
    coordinates: [  0.511111111111111,  0.622222222222222,  0.938001912998565 ]
    mass: 208.980400
    reduced_to: 31
  - symbol: Bi # 37
    coordinates: [  0.611111111111111,  0.722222222222222,  0.938001912998565 ]
    mass: 208.980400
    reduced_to: 31
  - symbol: Bi # 38
    coordinates: [  0.711111111111111,  0.822222222222222,  0.938001912998565 ]
    mass: 208.980400
    reduced_to: 31
  - symbol: Bi # 39
    coordinates: [  0.811111111111111,  0.922222222222222,  0.938001912998565 ]
    mass: 208.980400
    reduced_to: 31
  - symbol: Bi # 40
    coordinates: [  0.911111111111111,  0.022222222222222,  0.938001912998565 ]
    mass: 208.980400
    reduced_to: 31
  - symbol: Bi # 41
    coordinates: [  0.844444444444444,  0.288888888888889,  0.938001912998565 ]
    mass: 208.980400
    reduced_to: 31
  - symbol: Bi # 42
    coordinates: [  0.944444444444444,  0.388888888888889,  0.938001912998565 ]
    mass: 208.980400
    reduced_to: 31
  - symbol: Bi # 43
    coordinates: [  0.044444444444444,  0.488888888888889,  0.938001912998565 ]
    mass: 208.980400
    reduced_to: 31
  - symbol: Bi # 44
    coordinates: [  0.144444444444444,  0.588888888888889,  0.938001912998565 ]
    mass: 208.980400
    reduced_to: 31
  - symbol: Bi # 45
    coordinates: [  0.244444444444444,  0.688888888888889,  0.938001912998565 ]
    mass: 208.980400
    reduced_to: 31
  - symbol: Bi # 46
    coordinates: [  0.344444444444444,  0.788888888888889,  0.938001912998565 ]
    mass: 208.980400
    reduced_to: 31
  - symbol: Bi # 47
    coordinates: [  0.444444444444444,  0.888888888888889,  0.938001912998565 ]
    mass: 208.980400
    reduced_to: 31
  - symbol: Bi # 48
    coordinates: [  0.544444444444444,  0.988888888888889,  0.938001912998565 ]
    mass: 208.980400
    reduced_to: 31
  - symbol: Bi # 49
    coordinates: [  0.644444444444444,  0.088888888888889,  0.938001912998565 ]
    mass: 208.980400
    reduced_to: 31
  - symbol: Bi # 50
    coordinates: [  0.744444444444444,  0.188888888888889,  0.938001912998565 ]
    mass: 208.980400
    reduced_to: 31
  - symbol: Bi # 51
    coordinates: [  0.677777777777777,  0.455555555555556,  0.938001912998565 ]
    mass: 208.980400
    reduced_to: 31
  - symbol: Bi # 52
    coordinates: [  0.777777777777777,  0.555555555555556,  0.938001912998565 ]
    mass: 208.980400
    reduced_to: 31
  - symbol: Bi # 53
    coordinates: [  0.877777777777777,  0.655555555555556,  0.938001912998565 ]
    mass: 208.980400
    reduced_to: 31
  - symbol: Bi # 54
    coordinates: [  0.977777777777777,  0.755555555555556,  0.938001912998565 ]
    mass: 208.980400
    reduced_to: 31
  - symbol: Bi # 55
    coordinates: [  0.077777777777777,  0.855555555555556,  0.938001912998565 ]
    mass: 208.980400
    reduced_to: 31
  - symbol: Bi # 56
    coordinates: [  0.177777777777777,  0.955555555555556,  0.938001912998565 ]
    mass: 208.980400
    reduced_to: 31
  - symbol: Bi # 57
    coordinates: [  0.277777777777777,  0.055555555555556,  0.938001912998565 ]
    mass: 208.980400
    reduced_to: 31
  - symbol: Bi # 58
    coordinates: [  0.377777777777777,  0.155555555555556,  0.938001912998565 ]
    mass: 208.980400
    reduced_to: 31
  - symbol: Bi # 59
    coordinates: [  0.477777777777777,  0.255555555555556,  0.938001912998565 ]
    mass: 208.980400
    reduced_to: 31
  - symbol: Bi # 60
    coordinates: [  0.577777777777777,  0.355555555555556,  0.938001912998565 ]
    mass: 208.980400
    reduced_to: 31
  - symbol: Bi # 61
    coordinates: [  0.922222222222223,  0.144444444444444,  0.061998087001428 ]
    mass: 208.980400
    reduced_to: 1
  - symbol: Bi # 62
    coordinates: [  0.022222222222223,  0.244444444444444,  0.061998087001428 ]
    mass: 208.980400
    reduced_to: 1
  - symbol: Bi # 63
    coordinates: [  0.122222222222223,  0.344444444444444,  0.061998087001428 ]
    mass: 208.980400
    reduced_to: 1
  - symbol: Bi # 64
    coordinates: [  0.222222222222223,  0.444444444444444,  0.061998087001428 ]
    mass: 208.980400
    reduced_to: 1
  - symbol: Bi # 65
    coordinates: [  0.322222222222223,  0.544444444444444,  0.061998087001428 ]
    mass: 208.980400
    reduced_to: 1
  - symbol: Bi # 66
    coordinates: [  0.422222222222223,  0.644444444444444,  0.061998087001428 ]
    mass: 208.980400
    reduced_to: 1
  - symbol: Bi # 67
    coordinates: [  0.522222222222223,  0.744444444444444,  0.061998087001428 ]
    mass: 208.980400
    reduced_to: 1
  - symbol: Bi # 68
    coordinates: [  0.622222222222223,  0.844444444444444,  0.061998087001428 ]
    mass: 208.980400
    reduced_to: 1
  - symbol: Bi # 69
    coordinates: [  0.722222222222223,  0.944444444444444,  0.061998087001428 ]
    mass: 208.980400
    reduced_to: 1
  - symbol: Bi # 70
    coordinates: [  0.822222222222223,  0.044444444444444,  0.061998087001428 ]
    mass: 208.980400
    reduced_to: 1
  - symbol: Bi # 71
    coordinates: [  0.755555555555556,  0.311111111111111,  0.061998087001428 ]
    mass: 208.980400
    reduced_to: 1
  - symbol: Bi # 72
    coordinates: [  0.855555555555556,  0.411111111111111,  0.061998087001428 ]
    mass: 208.980400
    reduced_to: 1
  - symbol: Bi # 73
    coordinates: [  0.955555555555556,  0.511111111111111,  0.061998087001428 ]
    mass: 208.980400
    reduced_to: 1
  - symbol: Bi # 74
    coordinates: [  0.055555555555556,  0.611111111111111,  0.061998087001428 ]
    mass: 208.980400
    reduced_to: 1
  - symbol: Bi # 75
    coordinates: [  0.155555555555556,  0.711111111111111,  0.061998087001428 ]
    mass: 208.980400
    reduced_to: 1
  - symbol: Bi # 76
    coordinates: [  0.255555555555556,  0.811111111111111,  0.061998087001428 ]
    mass: 208.980400
    reduced_to: 1
  - symbol: Bi # 77
    coordinates: [  0.355555555555556,  0.911111111111111,  0.061998087001428 ]
    mass: 208.980400
    reduced_to: 1
  - symbol: Bi # 78
    coordinates: [  0.455555555555556,  0.011111111111111,  0.061998087001428 ]
    mass: 208.980400
    reduced_to: 1
  - symbol: Bi # 79
    coordinates: [  0.555555555555556,  0.111111111111111,  0.061998087001428 ]
    mass: 208.980400
    reduced_to: 1
  - symbol: Bi # 80
    coordinates: [  0.655555555555556,  0.211111111111111,  0.061998087001428 ]
    mass: 208.980400
    reduced_to: 1
  - symbol: Bi # 81
    coordinates: [  0.588888888888889,  0.477777777777778,  0.061998087001428 ]
    mass: 208.980400
    reduced_to: 1
  - symbol: Bi # 82
    coordinates: [  0.688888888888890,  0.577777777777778,  0.061998087001428 ]
    mass: 208.980400
    reduced_to: 1
  - symbol: Bi # 83
    coordinates: [  0.788888888888890,  0.677777777777778,  0.061998087001428 ]
    mass: 208.980400
    reduced_to: 1
  - symbol: Bi # 84
    coordinates: [  0.888888888888890,  0.777777777777778,  0.061998087001428 ]
    mass: 208.980400
    reduced_to: 1
  - symbol: Bi # 85
    coordinates: [  0.988888888888890,  0.877777777777778,  0.061998087001428 ]
    mass: 208.980400
    reduced_to: 1
  - symbol: Bi # 86
    coordinates: [  0.088888888888890,  0.977777777777778,  0.061998087001428 ]
    mass: 208.980400
    reduced_to: 1
  - symbol: Bi # 87
    coordinates: [  0.188888888888890,  0.077777777777778,  0.061998087001428 ]
    mass: 208.980400
    reduced_to: 1
  - symbol: Bi # 88
    coordinates: [  0.288888888888890,  0.177777777777778,  0.061998087001428 ]
    mass: 208.980400
    reduced_to: 1
  - symbol: Bi # 89
    coordinates: [  0.388888888888890,  0.277777777777778,  0.061998087001428 ]
    mass: 208.980400
    reduced_to: 1
  - symbol: Bi # 90
    coordinates: [  0.488888888888890,  0.377777777777778,  0.061998087001428 ]
    mass: 208.980400
    reduced_to: 1
  - symbol: Bi # 91
    coordinates: [  0.922222222222223,  0.144444444444444,  0.271335246331900 ]
    mass: 208.980400
    reduced_to: 31
  - symbol: Bi # 92
    coordinates: [  0.022222222222223,  0.244444444444444,  0.271335246331900 ]
    mass: 208.980400
    reduced_to: 31
  - symbol: Bi # 93
    coordinates: [  0.122222222222223,  0.344444444444444,  0.271335246331900 ]
    mass: 208.980400
    reduced_to: 31
  - symbol: Bi # 94
    coordinates: [  0.222222222222223,  0.444444444444444,  0.271335246331900 ]
    mass: 208.980400
    reduced_to: 31
  - symbol: Bi # 95
    coordinates: [  0.322222222222223,  0.544444444444444,  0.271335246331900 ]
    mass: 208.980400
    reduced_to: 31
  - symbol: Bi # 96
    coordinates: [  0.422222222222223,  0.644444444444444,  0.271335246331900 ]
    mass: 208.980400
    reduced_to: 31
  - symbol: Bi # 97
    coordinates: [  0.522222222222223,  0.744444444444444,  0.271335246331900 ]
    mass: 208.980400
    reduced_to: 31
  - symbol: Bi # 98
    coordinates: [  0.622222222222223,  0.844444444444444,  0.271335246331900 ]
    mass: 208.980400
    reduced_to: 31
  - symbol: Bi # 99
    coordinates: [  0.722222222222223,  0.944444444444444,  0.271335246331900 ]
    mass: 208.980400
    reduced_to: 31
  - symbol: Bi # 100
    coordinates: [  0.822222222222223,  0.044444444444444,  0.271335246331900 ]
    mass: 208.980400
    reduced_to: 31
  - symbol: Bi # 101
    coordinates: [  0.755555555555556,  0.311111111111111,  0.271335246331900 ]
    mass: 208.980400
    reduced_to: 31
  - symbol: Bi # 102
    coordinates: [  0.855555555555556,  0.411111111111111,  0.271335246331900 ]
    mass: 208.980400
    reduced_to: 31
  - symbol: Bi # 103
    coordinates: [  0.955555555555556,  0.511111111111111,  0.271335246331900 ]
    mass: 208.980400
    reduced_to: 31
  - symbol: Bi # 104
    coordinates: [  0.055555555555556,  0.611111111111111,  0.271335246331900 ]
    mass: 208.980400
    reduced_to: 31
  - symbol: Bi # 105
    coordinates: [  0.155555555555556,  0.711111111111111,  0.271335246331900 ]
    mass: 208.980400
    reduced_to: 31
  - symbol: Bi # 106
    coordinates: [  0.255555555555556,  0.811111111111111,  0.271335246331900 ]
    mass: 208.980400
    reduced_to: 31
  - symbol: Bi # 107
    coordinates: [  0.355555555555556,  0.911111111111111,  0.271335246331900 ]
    mass: 208.980400
    reduced_to: 31
  - symbol: Bi # 108
    coordinates: [  0.455555555555556,  0.011111111111111,  0.271335246331900 ]
    mass: 208.980400
    reduced_to: 31
  - symbol: Bi # 109
    coordinates: [  0.555555555555556,  0.111111111111111,  0.271335246331900 ]
    mass: 208.980400
    reduced_to: 31
  - symbol: Bi # 110
    coordinates: [  0.655555555555556,  0.211111111111111,  0.271335246331900 ]
    mass: 208.980400
    reduced_to: 31
  - symbol: Bi # 111
    coordinates: [  0.588888888888889,  0.477777777777778,  0.271335246331900 ]
    mass: 208.980400
    reduced_to: 31
  - symbol: Bi # 112
    coordinates: [  0.688888888888890,  0.577777777777778,  0.271335246331900 ]
    mass: 208.980400
    reduced_to: 31
  - symbol: Bi # 113
    coordinates: [  0.788888888888890,  0.677777777777778,  0.271335246331900 ]
    mass: 208.980400
    reduced_to: 31
  - symbol: Bi # 114
    coordinates: [  0.888888888888890,  0.777777777777778,  0.271335246331900 ]
    mass: 208.980400
    reduced_to: 31
  - symbol: Bi # 115
    coordinates: [  0.988888888888890,  0.877777777777778,  0.271335246331900 ]
    mass: 208.980400
    reduced_to: 31
  - symbol: Bi # 116
    coordinates: [  0.088888888888890,  0.977777777777778,  0.271335246331900 ]
    mass: 208.980400
    reduced_to: 31
  - symbol: Bi # 117
    coordinates: [  0.188888888888890,  0.077777777777778,  0.271335246331900 ]
    mass: 208.980400
    reduced_to: 31
  - symbol: Bi # 118
    coordinates: [  0.288888888888890,  0.177777777777778,  0.271335246331900 ]
    mass: 208.980400
    reduced_to: 31
  - symbol: Bi # 119
    coordinates: [  0.388888888888890,  0.277777777777778,  0.271335246331900 ]
    mass: 208.980400
    reduced_to: 31
  - symbol: Bi # 120
    coordinates: [  0.488888888888890,  0.377777777777778,  0.271335246331900 ]
    mass: 208.980400
    reduced_to: 31
  - symbol: Bi # 121
    coordinates: [  0.000000000000000,  0.000000000000000,  0.395331420334764 ]
    mass: 208.980400
    reduced_to: 1
  - symbol: Bi # 122
    coordinates: [  0.100000000000000,  0.100000000000000,  0.395331420334764 ]
    mass: 208.980400
    reduced_to: 1
  - symbol: Bi # 123
    coordinates: [  0.200000000000000,  0.200000000000000,  0.395331420334764 ]
    mass: 208.980400
    reduced_to: 1
  - symbol: Bi # 124
    coordinates: [  0.300000000000000,  0.300000000000000,  0.395331420334764 ]
    mass: 208.980400
    reduced_to: 1
  - symbol: Bi # 125
    coordinates: [  0.400000000000000,  0.400000000000000,  0.395331420334764 ]
    mass: 208.980400
    reduced_to: 1
  - symbol: Bi # 126
    coordinates: [  0.500000000000000,  0.500000000000000,  0.395331420334764 ]
    mass: 208.980400
    reduced_to: 1
  - symbol: Bi # 127
    coordinates: [  0.600000000000000,  0.600000000000000,  0.395331420334764 ]
    mass: 208.980400
    reduced_to: 1
  - symbol: Bi # 128
    coordinates: [  0.700000000000000,  0.700000000000000,  0.395331420334764 ]
    mass: 208.980400
    reduced_to: 1
  - symbol: Bi # 129
    coordinates: [  0.800000000000000,  0.800000000000000,  0.395331420334764 ]
    mass: 208.980400
    reduced_to: 1
  - symbol: Bi # 130
    coordinates: [  0.900000000000000,  0.900000000000000,  0.395331420334764 ]
    mass: 208.980400
    reduced_to: 1
  - symbol: Bi # 131
    coordinates: [  0.833333333333333,  0.166666666666667,  0.395331420334764 ]
    mass: 208.980400
    reduced_to: 1
  - symbol: Bi # 132
    coordinates: [  0.933333333333333,  0.266666666666667,  0.395331420334764 ]
    mass: 208.980400
    reduced_to: 1
  - symbol: Bi # 133
    coordinates: [  0.033333333333333,  0.366666666666667,  0.395331420334764 ]
    mass: 208.980400
    reduced_to: 1
  - symbol: Bi # 134
    coordinates: [  0.133333333333333,  0.466666666666667,  0.395331420334764 ]
    mass: 208.980400
    reduced_to: 1
  - symbol: Bi # 135
    coordinates: [  0.233333333333333,  0.566666666666667,  0.395331420334764 ]
    mass: 208.980400
    reduced_to: 1
  - symbol: Bi # 136
    coordinates: [  0.333333333333333,  0.666666666666667,  0.395331420334764 ]
    mass: 208.980400
    reduced_to: 1
  - symbol: Bi # 137
    coordinates: [  0.433333333333333,  0.766666666666667,  0.395331420334764 ]
    mass: 208.980400
    reduced_to: 1
  - symbol: Bi # 138
    coordinates: [  0.533333333333333,  0.866666666666667,  0.395331420334764 ]
    mass: 208.980400
    reduced_to: 1
  - symbol: Bi # 139
    coordinates: [  0.633333333333333,  0.966666666666667,  0.395331420334764 ]
    mass: 208.980400
    reduced_to: 1
  - symbol: Bi # 140
    coordinates: [  0.733333333333333,  0.066666666666667,  0.395331420334764 ]
    mass: 208.980400
    reduced_to: 1
  - symbol: Bi # 141
    coordinates: [  0.666666666666667,  0.333333333333333,  0.395331420334764 ]
    mass: 208.980400
    reduced_to: 1
  - symbol: Bi # 142
    coordinates: [  0.766666666666667,  0.433333333333333,  0.395331420334764 ]
    mass: 208.980400
    reduced_to: 1
  - symbol: Bi # 143
    coordinates: [  0.866666666666667,  0.533333333333333,  0.395331420334764 ]
    mass: 208.980400
    reduced_to: 1
  - symbol: Bi # 144
    coordinates: [  0.966666666666667,  0.633333333333333,  0.395331420334764 ]
    mass: 208.980400
    reduced_to: 1
  - symbol: Bi # 145
    coordinates: [  0.066666666666667,  0.733333333333333,  0.395331420334764 ]
    mass: 208.980400
    reduced_to: 1
  - symbol: Bi # 146
    coordinates: [  0.166666666666667,  0.833333333333333,  0.395331420334764 ]
    mass: 208.980400
    reduced_to: 1
  - symbol: Bi # 147
    coordinates: [  0.266666666666667,  0.933333333333333,  0.395331420334764 ]
    mass: 208.980400
    reduced_to: 1
  - symbol: Bi # 148
    coordinates: [  0.366666666666667,  0.033333333333333,  0.395331420334764 ]
    mass: 208.980400
    reduced_to: 1
  - symbol: Bi # 149
    coordinates: [  0.466666666666667,  0.133333333333333,  0.395331420334764 ]
    mass: 208.980400
    reduced_to: 1
  - symbol: Bi # 150
    coordinates: [  0.566666666666667,  0.233333333333333,  0.395331420334764 ]
    mass: 208.980400
    reduced_to: 1
  - symbol: Bi # 151
    coordinates: [  0.000000000000000,  0.000000000000000,  0.604668579665229 ]
    mass: 208.980400
    reduced_to: 31
  - symbol: Bi # 152
    coordinates: [  0.100000000000000,  0.100000000000000,  0.604668579665229 ]
    mass: 208.980400
    reduced_to: 31
  - symbol: Bi # 153
    coordinates: [  0.200000000000000,  0.200000000000000,  0.604668579665229 ]
    mass: 208.980400
    reduced_to: 31
  - symbol: Bi # 154
    coordinates: [  0.300000000000000,  0.300000000000000,  0.604668579665229 ]
    mass: 208.980400
    reduced_to: 31
  - symbol: Bi # 155
    coordinates: [  0.400000000000000,  0.400000000000000,  0.604668579665229 ]
    mass: 208.980400
    reduced_to: 31
  - symbol: Bi # 156
    coordinates: [  0.500000000000000,  0.500000000000000,  0.604668579665229 ]
    mass: 208.980400
    reduced_to: 31
  - symbol: Bi # 157
    coordinates: [  0.600000000000000,  0.600000000000000,  0.604668579665229 ]
    mass: 208.980400
    reduced_to: 31
  - symbol: Bi # 158
    coordinates: [  0.700000000000000,  0.700000000000000,  0.604668579665229 ]
    mass: 208.980400
    reduced_to: 31
  - symbol: Bi # 159
    coordinates: [  0.800000000000000,  0.800000000000000,  0.604668579665229 ]
    mass: 208.980400
    reduced_to: 31
  - symbol: Bi # 160
    coordinates: [  0.900000000000000,  0.900000000000000,  0.604668579665229 ]
    mass: 208.980400
    reduced_to: 31
  - symbol: Bi # 161
    coordinates: [  0.833333333333333,  0.166666666666667,  0.604668579665229 ]
    mass: 208.980400
    reduced_to: 31
  - symbol: Bi # 162
    coordinates: [  0.933333333333333,  0.266666666666667,  0.604668579665229 ]
    mass: 208.980400
    reduced_to: 31
  - symbol: Bi # 163
    coordinates: [  0.033333333333333,  0.366666666666667,  0.604668579665229 ]
    mass: 208.980400
    reduced_to: 31
  - symbol: Bi # 164
    coordinates: [  0.133333333333333,  0.466666666666667,  0.604668579665229 ]
    mass: 208.980400
    reduced_to: 31
  - symbol: Bi # 165
    coordinates: [  0.233333333333333,  0.566666666666667,  0.604668579665229 ]
    mass: 208.980400
    reduced_to: 31
  - symbol: Bi # 166
    coordinates: [  0.333333333333333,  0.666666666666667,  0.604668579665229 ]
    mass: 208.980400
    reduced_to: 31
  - symbol: Bi # 167
    coordinates: [  0.433333333333333,  0.766666666666667,  0.604668579665229 ]
    mass: 208.980400
    reduced_to: 31
  - symbol: Bi # 168
    coordinates: [  0.533333333333333,  0.866666666666667,  0.604668579665229 ]
    mass: 208.980400
    reduced_to: 31
  - symbol: Bi # 169
    coordinates: [  0.633333333333333,  0.966666666666667,  0.604668579665229 ]
    mass: 208.980400
    reduced_to: 31
  - symbol: Bi # 170
    coordinates: [  0.733333333333333,  0.066666666666667,  0.604668579665229 ]
    mass: 208.980400
    reduced_to: 31
  - symbol: Bi # 171
    coordinates: [  0.666666666666667,  0.333333333333333,  0.604668579665229 ]
    mass: 208.980400
    reduced_to: 31
  - symbol: Bi # 172
    coordinates: [  0.766666666666667,  0.433333333333333,  0.604668579665229 ]
    mass: 208.980400
    reduced_to: 31
  - symbol: Bi # 173
    coordinates: [  0.866666666666667,  0.533333333333333,  0.604668579665229 ]
    mass: 208.980400
    reduced_to: 31
  - symbol: Bi # 174
    coordinates: [  0.966666666666667,  0.633333333333333,  0.604668579665229 ]
    mass: 208.980400
    reduced_to: 31
  - symbol: Bi # 175
    coordinates: [  0.066666666666667,  0.733333333333333,  0.604668579665229 ]
    mass: 208.980400
    reduced_to: 31
  - symbol: Bi # 176
    coordinates: [  0.166666666666667,  0.833333333333333,  0.604668579665229 ]
    mass: 208.980400
    reduced_to: 31
  - symbol: Bi # 177
    coordinates: [  0.266666666666667,  0.933333333333333,  0.604668579665229 ]
    mass: 208.980400
    reduced_to: 31
  - symbol: Bi # 178
    coordinates: [  0.366666666666667,  0.033333333333333,  0.604668579665229 ]
    mass: 208.980400
    reduced_to: 31
  - symbol: Bi # 179
    coordinates: [  0.466666666666667,  0.133333333333333,  0.604668579665229 ]
    mass: 208.980400
    reduced_to: 31
  - symbol: Bi # 180
    coordinates: [  0.566666666666667,  0.233333333333333,  0.604668579665229 ]
    mass: 208.980400
    reduced_to: 31
  - symbol: Se # 181
    coordinates: [  0.000000000000000,  0.000000000000000,  0.000000000000000 ]
    mass: 78.960000
    reduced_to: 181
  - symbol: Se # 182
    coordinates: [  0.100000000000000,  0.100000000000000,  0.000000000000000 ]
    mass: 78.960000
    reduced_to: 181
  - symbol: Se # 183
    coordinates: [  0.200000000000000,  0.200000000000000,  0.000000000000000 ]
    mass: 78.960000
    reduced_to: 181
  - symbol: Se # 184
    coordinates: [  0.300000000000000,  0.300000000000000,  0.000000000000000 ]
    mass: 78.960000
    reduced_to: 181