phonopy:
  version: "2.27.0"
  frequency_unit_conversion_factor: 15.633302
  symmetry_tolerance: 1.00000e-04

space_group:
  type: "P-3m1"
  number: 164
  Hall_symbol: "-P 3 2\""

primitive_matrix:
- [  1.000000000000000, -0.000000000000000, -0.000000000000000 ]
- [ -0.000000000000000,  1.000000000000000,  0.000000000000000 ]
- [  0.000000000000000,  0.000000000000000,  1.000000000000000 ]

supercell_matrix:
- [   4,  -3,   0 ]
- [   4,   3,   0 ]
- [   0,   0,   1 ]

primitive_cell:
  lattice:
  - [     2.130461629662194,    -3.690067786150910,    -0.000000000000004 ] # a
  - [     2.130461629662194,     3.690067786150910,     0.000000000000004 ] # b
  - [    -0.000000000000001,     0.000000000000023,    18.187125424164279 ] # c
  points:
  - symbol: Ge # 1
    coordinates: [  0.000000000000001,  0.000000000000004,  0.330990540045183 ]
    mass: 72.640000
  - symbol: Ge # 2
    coordinates: [  0.000000000000002,  0.000000000000002,  0.669009459954818 ]
    mass: 72.640000
  - symbol: Sb # 3
    coordinates: [  0.333333333333334,  0.666666666666671,  0.112187977469498 ]
    mass: 121.760000
  - symbol: Sb # 4
    coordinates: [  0.666666666666670,  0.333333333333336,  0.887812022530503 ]
    mass: 121.760000
  - symbol: Te # 5
    coordinates: [  0.000000000000002,  0.000000000000003,  0.000000000000001 ]
    mass: 127.600000
  - symbol: Te # 6
    coordinates: [  0.333333333333335,  0.666666666666670,  0.791851310177563 ]
    mass: 127.600000
  - symbol: Te # 7
    coordinates: [  0.666666666666669,  0.333333333333336,  0.208148689822438 ]
    mass: 127.600000
  - symbol: Te # 8
    coordinates: [  0.333333333333335,  0.666666666666670,  0.409233632067421 ]
    mass: 127.600000
  - symbol: Te # 9
    coordinates: [  0.666666666666669,  0.333333333333337,  0.590766367932580 ]
    mass: 127.600000
  reciprocal_lattice: # without 2pi
  - [     0.234690920051576,    -0.135498865868138,     0.000000000000000 ] # a*
  - [     0.234690920051576,     0.135498865868138,    -0.000000000000000 ] # b*
  - [    -0.000000000000000,    -0.000000000000000,     0.054983950276790 ] # c*

unit_cell:
  lattice:
  - [     2.130461629662194,    -3.690067786150910,    -0.000000000000004 ] # a
  - [     2.130461629662194,     3.690067786150910,     0.000000000000004 ] # b
  - [    -0.000000000000001,     0.000000000000023,    18.187125424164275 ] # c
  points:
  - symbol: Ge # 1
    coordinates: [  0.000000000000001,  0.000000000000004,  0.330990540045184 ]
    mass: 72.640000
    reduced_to: 1
  - symbol: Ge # 2
    coordinates: [  0.000000000000002,  0.000000000000002,  0.669009459954818 ]
    mass: 72.640000
    reduced_to: 2
  - symbol: Sb # 3
    coordinates: [  0.333333333333334,  0.666666666666671,  0.112187977469498 ]
    mass: 121.760000
    reduced_to: 3
  - symbol: Sb # 4
    coordinates: [  0.666666666666669,  0.333333333333335,  0.887812022530503 ]
    mass: 121.760000
    reduced_to: 4
  - symbol: Te # 5
    coordinates: [  0.000000000000002,  0.000000000000003,  0.000000000000001 ]
    mass: 127.600000
    reduced_to: 5
  - symbol: Te # 6
    coordinates: [  0.333333333333335,  0.666666666666670,  0.791851310177563 ]
    mass: 127.600000
    reduced_to: 6
  - symbol: Te # 7
    coordinates: [  0.666666666666669,  0.333333333333336,  0.208148689822438 ]
    mass: 127.600000
    reduced_to: 7
  - symbol: Te # 8
    coordinates: [  0.333333333333335,  0.666666666666670,  0.409233632067421 ]
    mass: 127.600000
    reduced_to: 8
  - symbol: Te # 9
    coordinates: [  0.666666666666669,  0.333333333333336,  0.590766367932580 ]
    mass: 127.600000
    reduced_to: 9

supercell:
  lattice:
  - [    17.043693037297555,    -0.000000000000000,     0.000000000000000 ] # a
  - [    -0.000000000000000,    22.140406716905460,     0.000000000000025 ] # b
  - [    -0.000000000000001,     0.000000000000023,    18.187125424164275 ] # c
  points:
  - symbol: Ge # 1
    coordinates: [  0.000000000000001,  0.000000000000000,  0.330990540045184 ]
    mass: 72.640000
    reduced_to: 1
  - symbol: Ge # 2
    coordinates: [  0.125000000000001,  0.833333333333334,  0.330990540045184 ]
    mass: 72.640000
    reduced_to: 1
  - symbol: Ge # 3
    coordinates: [  0.250000000000001,  0.666666666666667,  0.330990540045184 ]
    mass: 72.640000
    reduced_to: 1
  - symbol: Ge # 4
    coordinates: [  0.375000000000001,  0.500000000000000,  0.330990540045184 ]
    mass: 72.640000
    reduced_to: 1
  - symbol: Ge # 5
    coordinates: [  0.500000000000001,  0.333333333333334,  0.330990540045184 ]
    mass: 72.640000
    reduced_to: 1
  - symbol: Ge # 6
    coordinates: [  0.625000000000001,  0.166666666666667,  0.330990540045184 ]
    mass: 72.640000
    reduced_to: 1
  - symbol: Ge # 7
    coordinates: [  0.750000000000001,  0.000000000000000,  0.330990540045184 ]
    mass: 72.640000
    reduced_to: 1
  - symbol: Ge # 8
    coordinates: [  0.125000000000001,  0.166666666666667,  0.330990540045184 ]
    mass: 72.640000
    reduced_to: 1
  - symbol: Ge # 9
    coordinates: [  0.250000000000001,  0.000000000000000,  0.330990540045184 ]
    mass: 72.640000
    reduced_to: 1
  - symbol: Ge # 10
    coordinates: [  0.375000000000001,  0.833333333333334,  0.330990540045184 ]
    mass: 72.640000
    reduced_to: 1
  - symbol: Ge # 11
    coordinates: [  0.500000000000001,  0.666666666666667,  0.330990540045184 ]
    mass: 72.640000
    reduced_to: 1
  - symbol: Ge # 12
    coordinates: [  0.625000000000001,  0.500000000000000,  0.330990540045184 ]
    mass: 72.640000
    reduced_to: 1
  - symbol: Ge # 13
    coordinates: [  0.750000000000001,  0.333333333333334,  0.330990540045184 ]
    mass: 72.640000
    reduced_to: 1
  - symbol: Ge # 14
    coordinates: [  0.875000000000001,  0.166666666666667,  0.330990540045184 ]
    mass: 72.640000
    reduced_to: 1
  - symbol: Ge # 15
    coordinates: [  0.250000000000001,  0.333333333333334,  0.330990540045184 ]
    mass: 72.640000
    reduced_to: 1
  - symbol: Ge # 16
    coordinates: [  0.375000000000001,  0.166666666666667,  0.330990540045184 ]
    mass: 72.640000
    reduced_to: 1
  - symbol: Ge # 17
    coordinates: [  0.500000000000001,  0.000000000000000,  0.330990540045184 ]
    mass: 72.640000
    reduced_to: 1
  - symbol: Ge # 18
    coordinates: [  0.625000000000001,  0.833333333333334,  0.330990540045184 ]
    mass: 72.640000
    reduced_to: 1
  - symbol: Ge # 19
    coordinates: [  0.750000000000001,  0.666666666666667,  0.330990540045184 ]
    mass: 72.640000
    reduced_to: 1
  - symbol: Ge # 20
    coordinates: [  0.875000000000001,  0.500000000000000,  0.330990540045184 ]
    mass: 72.640000
    reduced_to: 1
  - symbol: Ge # 21
    coordinates: [  0.000000000000000,  0.333333333333334,  0.330990540045184 ]
    mass: 72.640000
    reduced_to: 1
  - symbol: Ge # 22
    coordinates: [  0.875000000000001,  0.833333333333334,  0.330990540045184 ]
    mass: 72.640000
    reduced_to: 1
  - symbol: Ge # 23
    coordinates: [  0.000000000000001,  0.666666666666667,  0.330990540045184 ]
    mass: 72.640000
    reduced_to: 1
  - symbol: Ge # 24
    coordinates: [  0.125000000000000,  0.500000000000000,  0.330990540045184 ]
    mass: 72.640000
    reduced_to: 1
  - symbol: Ge # 25
    coordinates: [  0.000000000000001,  1.000000000000000,  0.669009459954818 ]
    mass: 72.640000
    reduced_to: 25
  - symbol: Ge # 26
    coordinates: [  0.125000000000001,  0.833333333333333,  0.669009459954818 ]
    mass: 72.640000
    reduced_to: 25
  - symbol: Ge # 27
    coordinates: [  0.250000000000001,  0.666666666666667,  0.669009459954818 ]
    mass: 72.640000
    reduced_to: 25
  - symbol: Ge # 28
    coordinates: [  0.375000000000001,  0.500000000000000,  0.669009459954818 ]
    mass: 72.640000
    reduced_to: 25
  - symbol: Ge # 29
    coordinates: [  0.500000000000001,  0.333333333333333,  0.669009459954818 ]
    mass: 72.640000
    reduced_to: 25
  - symbol: Ge # 30
    coordinates: [  0.625000000000001,  0.166666666666667,  0.669009459954818 ]
    mass: 72.640000
    reduced_to: 25
  - symbol: Ge # 31
    coordinates: [  0.750000000000001,  0.000000000000000,  0.669009459954818 ]
    mass: 72.640000
    reduced_to: 25
  - symbol: Ge # 32
    coordinates: [  0.125000000000001,  0.166666666666667,  0.669009459954818 ]
    mass: 72.640000
    reduced_to: 25
  - symbol: Ge # 33
    coordinates: [  0.250000000000001,  1.000000000000000,  0.669009459954818 ]
    mass: 72.640000
    reduced_to: 25
  - symbol: Ge # 34
    coordinates: [  0.375000000000001,  0.833333333333333,  0.669009459954818 ]
    mass: 72.640000
    reduced_to: 25
  - symbol: Ge # 35
    coordinates: [  0.500000000000001,  0.666666666666667,  0.669009459954818 ]
    mass: 72.640000
    reduced_to: 25
  - symbol: Ge # 36
    coordinates: [  0.625000000000000,  0.500000000000000,  0.669009459954818 ]
    mass: 72.640000
    reduced_to: 25
  - symbol: Ge # 37
    coordinates: [  0.750000000000001,  0.333333333333333,  0.669009459954818 ]
    mass: 72.640000
    reduced_to: 25
  - symbol: Ge # 38
    coordinates: [  0.875000000000000,  0.166666666666667,  0.669009459954818 ]
    mass: 72.640000
    reduced_to: 25
  - symbol: Ge # 39
    coordinates: [  0.250000000000001,  0.333333333333333,  0.669009459954818 ]
    mass: 72.640000
    reduced_to: 25
  - symbol: Ge # 40
    coordinates: [  0.375000000000001,  0.166666666666667,  0.669009459954818 ]
    mass: 72.640000
    reduced_to: 25
  - symbol: Ge # 41
    coordinates: [  0.500000000000001,  1.000000000000000,  0.669009459954818 ]
    mass: 72.640000
    reduced_to: 25
  - symbol: Ge # 42
    coordinates: [  0.625000000000001,  0.833333333333333,  0.669009459954818 ]
    mass: 72.640000
    reduced_to: 25
  - symbol: Ge # 43
    coordinates: [  0.750000000000000,  0.666666666666667,  0.669009459954818 ]
    mass: 72.640000
    reduced_to: 25
  - symbol: Ge # 44
    coordinates: [  0.875000000000001,  0.500000000000000,  0.669009459954818 ]
    mass: 72.640000
    reduced_to: 25
  - symbol: Ge # 45
    coordinates: [  0.000000000000000,  0.333333333333333,  0.669009459954818 ]
    mass: 72.640000
    reduced_to: 25
  - symbol: Ge # 46
    coordinates: [  0.875000000000000,  0.833333333333333,  0.669009459954818 ]
    mass: 72.640000
    reduced_to: 25
  - symbol: Ge # 47
    coordinates: [  0.000000000000001,  0.666666666666667,  0.669009459954818 ]
    mass: 72.640000
    reduced_to: 25
  - symbol: Ge # 48
    coordinates: [  0.125000000000000,  0.500000000000000,  0.669009459954818 ]
    mass: 72.640000
    reduced_to: 25
  - symbol: Sb # 49
    coordinates: [  0.125000000000001,  0.055555555555556,  0.112187977469498 ]
    mass: 121.760000
    reduced_to: 49
  - symbol: Sb # 50
    coordinates: [  0.250000000000001,  0.888888888888890,  0.112187977469498 ]
    mass: 121.760000
    reduced_to: 49
  - symbol: Sb # 51
    coordinates: [  0.375000000000001,  0.722222222222223,  0.112187977469498 ]
    mass: 121.760000
    reduced_to: 49
  - symbol: Sb # 52
    coordinates: [  0.500000000000001,  0.555555555555556,  0.112187977469498 ]
    mass: 121.760000
    reduced_to: 49
  - symbol: Sb # 53
    coordinates: [  0.625000000000001,  0.388888888888889,  0.112187977469498 ]
    mass: 121.760000
    reduced_to: 49
  - symbol: Sb # 54
    coordinates: [  0.750000000000001,  0.222222222222223,  0.112187977469498 ]
    mass: 121.760000
    reduced_to: 49
  - symbol: Sb # 55
    coordinates: [  0.875000000000001,  0.055555555555556,  0.112187977469498 ]
    mass: 121.760000
    reduced_to: 49
  - symbol: Sb # 56
    coordinates: [  0.250000000000001,  0.222222222222223,  0.112187977469498 ]
    mass: 121.760000
    reduced_to: 49
  - symbol: Sb # 57
    coordinates: [  0.375000000000001,  0.055555555555556,  0.112187977469498 ]
    mass: 121.760000
    reduced_to: 49
  - symbol: Sb # 58
    coordinates: [  0.500000000000001,  0.888888888888889,  0.112187977469498 ]
    mass: 121.760000
    reduced_to: 49
  - symbol: Sb # 59
    coordinates: [  0.625000000000001,  0.722222222222223,  0.112187977469498 ]
    mass: 121.760000
    reduced_to: 49
  - symbol: Sb # 60
    coordinates: [  0.750000000000001,  0.555555555555556,  0.112187977469498 ]
    mass: 121.760000
    reduced_to: 49
  - symbol: Sb # 61
    coordinates: [  0.875000000000001,  0.388888888888889,  0.112187977469498 ]
    mass: 121.760000
    reduced_to: 49
  - symbol: Sb # 62
    coordinates: [  0.000000000000001,  0.222222222222223,  0.112187977469498 ]
    mass: 121.760000
    reduced_to: 49
  - symbol: Sb # 63
    coordinates: [  0.375000000000001,  0.388888888888889,  0.112187977469498 ]
    mass: 121.760000
    reduced_to: 49
  - symbol: Sb # 64
    coordinates: [  0.500000000000001,  0.222222222222223,  0.112187977469498 ]
    mass: 121.760000
    reduced_to: 49
  - symbol: Sb # 65
    coordinates: [  0.625000000000001,  0.055555555555556,  0.112187977469498 ]
    mass: 121.760000
    reduced_to: 49
  - symbol: Sb # 66
    coordinates: [  0.750000000000001,  0.888888888888889,  0.112187977469498 ]
    mass: 121.760000
    reduced_to: 49
  - symbol: Sb # 67
    coordinates: [  0.875000000000001,  0.722222222222223,  0.112187977469498 ]
    mass: 121.760000
    reduced_to: 49
  - symbol: Sb # 68
    coordinates: [  0.000000000000001,  0.555555555555556,  0.112187977469498 ]
    mass: 121.760000
    reduced_to: 49
  - symbol: Sb # 69
    coordinates: [  0.125000000000001,  0.388888888888889,  0.112187977469498 ]
    mass: 121.760000
    reduced_to: 49
  - symbol: Sb # 70
    coordinates: [  0.000000000000001,  0.888888888888889,  0.112187977469498 ]
    mass: 121.760000
    reduced_to: 49
  - symbol: Sb # 71
    coordinates: [  0.125000000000001,  0.722222222222223,  0.112187977469498 ]
    mass: 121.760000
    reduced_to: 49
  - symbol: Sb # 72
    coordinates: [  0.250000000000001,  0.555555555555556,  0.112187977469498 ]
    mass: 121.760000
    reduced_to: 49
  - symbol: Sb # 73
    coordinates: [  0.125000000000001,  0.944444444444444,  0.887812022530503 ]
    mass: 121.760000
    reduced_to: 73
  - symbol: Sb # 74
    coordinates: [  0.250000000000001,  0.777777777777778,  0.887812022530503 ]
    mass: 121.760000
    reduced_to: 73
  - symbol: Sb # 75
    coordinates: [  0.375000000000001,  0.611111111111111,  0.887812022530503 ]
    mass: 121.760000
    reduced_to: 73
  - symbol: Sb # 76
    coordinates: [  0.500000000000001,  0.444444444444444,  0.887812022530503 ]
    mass: 121.760000
    reduced_to: 73
  - symbol: Sb # 77
    coordinates: [  0.625000000000001,  0.277777777777778,  0.887812022530503 ]
    mass: 121.760000
    reduced_to: 73
  - symbol: Sb # 78
    coordinates: [  0.750000000000001,  0.111111111111111,  0.887812022530503 ]
    mass: 121.760000
    reduced_to: 73
  - symbol: Sb # 79
    coordinates: [  0.875000000000001,  0.944444444444444,  0.887812022530503 ]
    mass: 121.760000
    reduced_to: 73
  - symbol: Sb # 80
    coordinates: [  0.250000000000001,  0.111111111111111,  0.887812022530503 ]
    mass: 121.760000
    reduced_to: 73
  - symbol: Sb # 81
    coordinates: [  0.375000000000001,  0.944444444444444,  0.887812022530503 ]
    mass: 121.760000
    reduced_to: 73
  - symbol: Sb # 82
    coordinates: [  0.500000000000001,  0.777777777777778,  0.887812022530503 ]
    mass: 121.760000
    reduced_to: 73
  - symbol: Sb # 83
    coordinates: [  0.625000000000001,  0.611111111111111,  0.887812022530503 ]
    mass: 121.760000
    reduced_to: 73
  - symbol: Sb # 84
    coordinates: [  0.750000000000001,  0.444444444444444,  0.887812022530503 ]
    mass: 121.760000
    reduced_to: 73
  - symbol: Sb # 85
    coordinates: [  0.875000000000001,  0.277777777777778,  0.887812022530503 ]
    mass: 121.760000
    reduced_to: 73
  - symbol: Sb # 86
    coordinates: [  0.000000000000001,  0.111111111111111,  0.887812022530503 ]
    mass: 121.760000
    reduced_to: 73
  - symbol: Sb # 87
    coordinates: [  0.375000000000001,  0.277777777777778,  0.887812022530503 ]
    mass: 121.760000
    reduced_to: 73
  - symbol: Sb # 88
    coordinates: [  0.500000000000001,  0.111111111111111,  0.887812022530503 ]
    mass: 121.760000
    reduced_to: 73
  - symbol: Sb # 89
    coordinates: [  0.625000000000001,  0.944444444444444,  0.887812022530503 ]
    mass: 121.760000
    reduced_to: 73
  - symbol: Sb # 90
    coordinates: [  0.750000000000001,  0.777777777777778,  0.887812022530503 ]
    mass: 121.760000
    reduced_to: 73
  - symbol: Sb # 91
    coordinates: [  0.875000000000001,  0.611111111111111,  0.887812022530503 ]
    mass: 121.760000
    reduced_to: 73
  - symbol: Sb # 92
    coordinates: [  0.000000000000000,  0.444444444444444,  0.887812022530503 ]
    mass: 121.760000
    reduced_to: 73
  - symbol: Sb # 93
    coordinates: [  0.125000000000001,  0.277777777777778,  0.887812022530503 ]
    mass: 121.760000
    reduced_to: 73
  - symbol: Sb # 94
    coordinates: [  0.000000000000001,  0.777777777777778,  0.887812022530503 ]
    mass: 121.760000
    reduced_to: 73
  - symbol: Sb # 95
    coordinates: [  0.125000000000000,  0.611111111111111,  0.887812022530503 ]
    mass: 121.760000
    reduced_to: 73
  - symbol: Sb # 96
    coordinates: [  0.250000000000001,  0.444444444444444,  0.887812022530503 ]
    mass: 121.760000
    reduced_to: 73
  - symbol: Te # 97
    coordinates: [  0.000000000000001,  0.000000000000000,  0.000000000000001 ]
    mass: 127.600000
    reduced_to: 97
  - symbol: Te # 98
    coordinates: [  0.125000000000001,  0.833333333333333,  0.000000000000001 ]
    mass: 127.600000
    reduced_to: 97
  - symbol: Te # 99
    coordinates: [  0.250000000000001,  0.666666666666667,  0.000000000000001 ]
    mass: 127.600000
    reduced_to: 97
  - symbol: Te # 100
    coordinates: [  0.375000000000001,  0.500000000000000,  0.000000000000001 ]
    mass: 127.600000
    reduced_to: 97
  - symbol: Te # 101
    coordinates: [  0.500000000000001,  0.333333333333334,  0.000000000000001 ]
    mass: 127.600000
    reduced_to: 97
  - symbol: Te # 102
    coordinates: [  0.625000000000001,  0.166666666666667,  0.000000000000001 ]
    mass: 127.600000
    reduced_to: 97
  - symbol: Te # 103
    coordinates: [  0.750000000000001,  0.000000000000000,  0.000000000000001 ]
    mass: 127.600000
    reduced_to: 97
  - symbol: Te # 104
    coordinates: [  0.125000000000001,  0.166666666666667,  0.000000000000001 ]
    mass: 127.600000
    reduced_to: 97
  - symbol: Te # 105
    coordinates: [  0.250000000000001,  0.000000000000000,  0.000000000000001 ]
    mass: 127.600000
    reduced_to: 97
  - symbol: Te # 106
    coordinates: [  0.375000000000001,  0.833333333333333,  0.000000000000001 ]
    mass: 127.600000
    reduced_to: 97
  - symbol: Te # 107
    coordinates: [  0.500000000000001,  0.666666666666667,  0.000000000000001 ]
    mass: 127.600000
    reduced_to: 97
  - symbol: Te # 108
    coordinates: [  0.625000000000001,  0.500000000000000,  0.000000000000001 ]
    mass: 127.600000
    reduced_to: 97
  - symbol: Te # 109
    coordinates: [  0.750000000000001,  0.333333333333333,  0.000000000000001 ]
    mass: 127.600000
    reduced_to: 97
  - symbol: Te # 110
    coordinates: [  0.875000000000000,  0.166666666666667,  0.000000000000001 ]
    mass: 127.600000
    reduced_to: 97
  - symbol: Te # 111
    coordinates: [  0.250000000000001,  0.333333333333334,  0.000000000000001 ]
    mass: 127.600000
    reduced_to: 97
  - symbol: Te # 112
    coordinates: [  0.375000000000001,  0.166666666666667,  0.000000000000001 ]
    mass: 127.600000
    reduced_to: 97
  - symbol: Te # 113
    coordinates: [  0.500000000000001,  0.000000000000000,  0.000000000000001 ]
    mass: 127.600000
    reduced_to: 97
  - symbol: Te # 114
    coordinates: [  0.625000000000001,  0.833333333333333,  0.000000000000001 ]
    mass: 127.600000
    reduced_to: 97
  - symbol: Te # 115
    coordinates: [  0.750000000000001,  0.666666666666667,  0.000000000000001 ]
    mass: 127.600000
    reduced_to: 97
  - symbol: Te # 116
    coordinates: [  0.875000000000001,  0.500000000000000,  0.000000000000001 ]
    mass: 127.600000
    reduced_to: 97
  - symbol: Te # 117
    coordinates: [  0.000000000000000,  0.333333333333334,  0.000000000000001 ]
    mass: 127.600000
    reduced_to: 97
  - symbol: Te # 118
    coordinates: [  0.875000000000001,  0.833333333333334,  0.000000000000001 ]
    mass: 127.600000
    reduced_to: 97
  - symbol: Te # 119
    coordinates: [  0.000000000000001,  0.666666666666667,  0.000000000000001 ]
    mass: 127.600000
    reduced_to: 97
  - symbol: Te # 120
    coordinates: [  0.125000000000000,  0.500000000000000,  0.000000000000001 ]
    mass: 127.600000
    reduced_to: 97
  - symbol: Te # 121
    coordinates: [  0.125000000000001,  0.055555555555556,  0.791851310177563 ]
    mass: 127.600000
    reduced_to: 121
  - symbol: Te # 122
    coordinates: [  0.250000000000001,  0.888888888888889,  0.791851310177563 ]
    mass: 127.600000
    reduced_to: 121
  - symbol: Te # 123
    coordinates: [  0.375000000000001,  0.722222222222223,  0.791851310177563 ]
    mass: 127.600000
    reduced_to: 121
  - symbol: Te # 124
    coordinates: [  0.500000000000001,  0.555555555555556,  0.791851310177563 ]
    mass: 127.600000
    reduced_to: 121
  - symbol: Te # 125
    coordinates: [  0.625000000000001,  0.388888888888889,  0.791851310177563 ]
    mass: 127.600000
    reduced_to: 121
  - symbol: Te # 126
    coordinates: [  0.750000000000001,  0.222222222222223,  0.791851310177563 ]
    mass: 127.600000
    reduced_to: 121
  - symbol: Te # 127
    coordinates: [  0.875000000000001,  0.055555555555556,  0.791851310177563 ]
    mass: 127.600000
    reduced_to: 121
  - symbol: Te # 128
    coordinates: [  0.250000000000001,  0.222222222222223,  0.791851310177563 ]
    mass: 127.600000
    reduced_to: 121
  - symbol: Te # 129
    coordinates: [  0.375000000000001,  0.055555555555556,  0.791851310177563 ]
    mass: 127.600000
    reduced_to: 121
  - symbol: Te # 130
    coordinates: [  0.500000000000001,  0.888888888888889,  0.791851310177563 ]
    mass: 127.600000
    reduced_to: 121
  - symbol: Te # 131
    coordinates: [  0.625000000000001,  0.722222222222223,  0.791851310177563 ]
    mass: 127.600000
    reduced_to: 121
  - symbol: Te # 132
    coordinates: [  0.750000000000000,  0.555555555555556,  0.791851310177563 ]
    mass: 127.600000
    reduced_to: 121
  - symbol: Te # 133
    coordinates: [  0.875000000000001,  0.388888888888889,  0.791851310177563 ]
    mass: 127.600000
    reduced_to: 121
  - symbol: Te # 134
    coordinates: [  0.000000000000000,  0.222222222222223,  0.791851310177563 ]
    mass: 127.600000
    reduced_to: 121
  - symbol: Te # 135
    coordinates: [  0.375000000000001,  0.388888888888889,  0.791851310177563 ]
    mass: 127.600000
    reduced_to: 121
  - symbol: Te # 136
    coordinates: [  0.500000000000001,  0.222222222222223,  0.791851310177563 ]
    mass: 127.600000
    reduced_to: 121
  - symbol: Te # 137
    coordinates: [  0.625000000000001,  0.055555555555556,  0.791851310177563 ]
    mass: 127.600000
    reduced_to: 121
  - symbol: Te # 138
    coordinates: [  0.750000000000001,  0.888888888888889,  0.791851310177563 ]
    mass: 127.600000
    reduced_to: 121
  - symbol: Te # 139
    coordinates: [  0.875000000000000,  0.722222222222223,  0.791851310177563 ]
    mass: 127.600000
    reduced_to: 121
  - symbol: Te # 140
    coordinates: [  0.000000000000001,  0.555555555555556,  0.791851310177563 ]
    mass: 127.600000
    reduced_to: 121
  - symbol: Te # 141
    coordinates: [  0.125000000000000,  0.388888888888889,  0.791851310177563 ]
    mass: 127.600000
    reduced_to: 121
  - symbol: Te # 142
    coordinates: [  0.000000000000000,  0.888888888888889,  0.791851310177563 ]
    mass: 127.600000
    reduced_to: 121
  - symbol: Te # 143
    coordinates: [  0.125000000000001,  0.722222222222223,  0.791851310177563 ]
    mass: 127.600000
    reduced_to: 121
  - symbol: Te # 144
    coordinates: [  0.250000000000000,  0.555555555555556,  0.791851310177563 ]
    mass: 127.600000
    reduced_to: 121
  - symbol: Te # 145
    coordinates: [  0.125000000000001,  0.944444444444445,  0.208148689822438 ]
    mass: 127.600000
    reduced_to: 145
  - symbol: Te # 146
    coordinates: [  0.250000000000001,  0.777777777777778,  0.208148689822438 ]
    mass: 127.600000
    reduced_to: 145
  - symbol: Te # 147
    coordinates: [  0.375000000000001,  0.611111111111111,  0.208148689822438 ]
    mass: 127.600000
    reduced_to: 145
  - symbol: Te # 148
    coordinates: [  0.500000000000001,  0.444444444444444,  0.208148689822438 ]
    mass: 127.600000
    reduced_to: 145
  - symbol: Te # 149
    coordinates: [  0.625000000000001,  0.277777777777778,  0.208148689822438 ]
    mass: 127.600000
    reduced_to: 145
  - symbol: Te # 150
    coordinates: [  0.750000000000000,  0.111111111111111,  0.208148689822438 ]
    mass: 127.600000
    reduced_to: 145
  - symbol: Te # 151
    coordinates: [  0.875000000000001,  0.944444444444444,  0.208148689822438 ]
    mass: 127.600000
    reduced_to: 145
  - symbol: Te # 152
    coordinates: [  0.250000000000001,  0.111111111111111,  0.208148689822438 ]
    mass: 127.600000
    reduced_to: 145
  - symbol: Te # 153
    coordinates: [  0.375000000000001,  0.944444444444445,  0.208148689822438 ]
    mass: 127.600000
    reduced_to: 145
  - symbol: Te # 154
    coordinates: [  0.500000000000001,  0.777777777777778,  0.208148689822438 ]
    mass: 127.600000
    reduced_to: 145
  - symbol: Te # 155
    coordinates: [  0.625000000000001,  0.611111111111111,  0.208148689822438 ]
    mass: 127.600000
    reduced_to: 145
  - symbol: Te # 156
    coordinates: [  0.750000000000001,  0.444444444444445,  0.208148689822438 ]
    mass: 127.600000
    reduced_to: 145
  - symbol: Te # 157
    coordinates: [  0.875000000000000,  0.277777777777778,  0.208148689822438 ]
    mass: 127.600000
    reduced_to: 145
  - symbol: Te # 158
    coordinates: [  0.000000000000001,  0.111111111111111,  0.208148689822438 ]
    mass: 127.600000
    reduced_to: 145
  - symbol: Te # 159
    coordinates: [  0.375000000000001,  0.277777777777778,  0.208148689822438 ]
    mass: 127.600000
    reduced_to: 145
  - symbol: Te # 160
    coordinates: [  0.500000000000001,  0.111111111111111,  0.208148689822438 ]
    mass: 127.600000
    reduced_to: 145
  - symbol: Te # 161
    coordinates: [  0.625000000000001,  0.944444444444445,  0.208148689822438 ]
    mass: 127.600000
    reduced_to: 145
  - symbol: Te # 162
    coordinates: [  0.750000000000001,  0.777777777777778,  0.208148689822438 ]
    mass: 127.600000
    reduced_to: 145
  - symbol: Te # 163
    coordinates: [  0.875000000000001,  0.611111111111111,  0.208148689822438 ]
    mass: 127.600000
    reduced_to: 145
  - symbol: Te # 164
    coordinates: [  0.000000000000000,  0.444444444444445,  0.208148689822438 ]
    mass: 127.600000
    reduced_to: 145
  - symbol: Te # 165
    coordinates: [  0.125000000000001,  0.277777777777778,  0.208148689822438 ]
    mass: 127.600000
    reduced_to: 145
  - symbol: Te # 166
    coordinates: [  0.000000000000001,  0.777777777777778,  0.208148689822438 ]
    mass: 127.600000
    reduced_to: 145
  - symbol: Te # 167
    coordinates: [  0.125000000000000,  0.611111111111111,  0.208148689822438 ]
    mass: 127.600000
    reduced_to: 145
  - symbol: Te # 168
    coordinates: [  0.250000000000001,  0.444444444444444,  0.208148689822438 ]
    mass: 127.600000
    reduced_to: 145
  - symbol: Te # 169
    coordinates: [  0.125000000000001,  0.055555555555556,  0.409233632067421 ]
    mass: 127.600000
    reduced_to: 169
  - symbol: Te # 170
    coordinates: [  0.250000000000001,  0.888888888888889,  0.409233632067421 ]
    mass: 127.600000
    reduced_to: 169
  - symbol: Te # 171
    coordinates: [  0.375000000000001,  0.722222222222222,  0.409233632067421 ]
    mass: 127.600000
    reduced_to: 169
  - symbol: Te # 172
    coordinates: [  0.500000000000001,  0.555555555555556,  0.409233632067421 ]
    mass: 127.600000
    reduced_to: 169
  - symbol: Te # 173
    coordinates: [  0.625000000000000,  0.388888888888889,  0.409233632067421 ]
    mass: 127.600000
    reduced_to: 169
  - symbol: Te # 174
    coordinates: [  0.750000000000001,  0.222222222222222,  0.409233632067421 ]
    mass: 127.600000
    reduced_to: 169
  - symbol: Te # 175
    coordinates: [  0.875000000000000,  0.055555555555556,  0.409233632067421 ]
    mass: 127.600000
    reduced_to: 169
  - symbol: Te # 176
    coordinates: [  0.250000000000001,  0.222222222222222,  0.409233632067421 ]
    mass: 127.600000
    reduced_to: 169
  - symbol: Te # 177
    coordinates: [  0.375000000000001,  0.055555555555556,  0.409233632067421 ]
    mass: 127.600000
    reduced_to: 169
  - symbol: Te # 178
    coordinates: [  0.500000000000001,  0.888888888888889,  0.409233632067421 ]
    mass: 127.600000
    reduced_to: 169
  - symbol: Te # 179
    coordinates: [  0.625000000000001,  0.722222222222223,  0.409233632067421 ]
    mass: 127.600000
    reduced_to: 169
  - symbol: Te # 180
    coordinates: [  0.750000000000000,  0.555555555555556,  0.409233632067421 ]
    mass: 127.600000
    reduced_to: 169
  - symbol: Te # 181
    coordinates: [  0.875000000000001,  0.388888888888889,  0.409233632067421 ]
    mass: 127.600000
    reduced_to: 169
  - symbol: Te # 182
    coordinates: [  0.000000000000000,  0.222222222222222,  0.409233632067421 ]
    mass: 127.600000
    reduced_to: 169
  - symbol: Te # 183
    coordinates: [  0.375000000000001,  0.388888888888889,  0.409233632067421 ]
    mass: 127.600000
    reduced_to: 169
  - symbol: Te # 184
    coordinates: [  0.500000000000001,  0.222222222222222,  0.409233632067421 ]
    mass: 127.600000
    reduced_to: 169
  - symbol: Te # 185
    coordinates: [  0.625000000000001,  0.055555555555556,  0.409233632067421 ]
    mass: 127.600000
    reduced_to: 169
  - symbol: Te # 186
    coordinates: [  0.750000000000001,  0.888888888888889,  0.409233632067421 ]
    mass: 127.600000