phonopy:
  version: "2.27.0"
  frequency_unit_conversion_factor: 15.633302
  symmetry_tolerance: 1.00000e-03

space_group:
  type: "P-3m1"
  number: 164
  Hall_symbol: "-P 3 2\""

primitive_matrix:
- [  1.000000000000000, -0.000000000000000,  0.000000000000000 ]
- [ -0.000000000000000,  1.000000000000000,  0.000000000000000 ]
- [  0.000000000000000,  0.000000000000000,  1.000000000000000 ]

supercell_matrix:
- [   6,  -4,   0 ]
- [   6,   4,   0 ]
- [   0,   0,   2 ]

primitive_cell:
  lattice:
  - [     2.130461629662194,    -3.690067786150881,     0.000000000000001 ] # a
  - [     2.130461629662194,     3.690067786150881,    -0.000000000000001 ] # b
  - [    -0.000000000000001,    -0.000000000000009,    18.187125424164279 ] # c
  points:
  - symbol: Ge # 1
    coordinates: [  0.000000000000000,  0.000000000000002,  0.330990540045183 ]
    mass: 72.640000
  - symbol: Ge # 2
    coordinates: [  0.000000000000001,  0.000000000000002,  0.669009459954818 ]
    mass: 72.640000
  - symbol: Sb # 3
    coordinates: [  0.333333333333334,  0.666666666666669,  0.112187977469498 ]
    mass: 121.760000
  - symbol: Sb # 4
    coordinates: [  0.666666666666667,  0.333333333333336,  0.887812022530503 ]
    mass: 121.760000
  - symbol: Te # 5
    coordinates: [  0.000000000000001,  0.000000000000002,  0.000000000000000 ]
    mass: 127.600000
  - symbol: Te # 6
    coordinates: [  0.333333333333334,  0.666666666666669,  0.791851310177563 ]
    mass: 127.600000
  - symbol: Te # 7
    coordinates: [  0.666666666666667,  0.333333333333336,  0.208148689822438 ]
    mass: 127.600000
  - symbol: Te # 8
    coordinates: [  0.333333333333334,  0.666666666666669,  0.409233632067421 ]
    mass: 127.600000
  - symbol: Te # 9
    coordinates: [  0.666666666666667,  0.333333333333336,  0.590766367932580 ]
    mass: 127.600000
  reciprocal_lattice: # without 2pi
  - [     0.234690920051576,    -0.135498865868139,    -0.000000000000000 ] # a*
  - [     0.234690920051576,     0.135498865868139,     0.000000000000000 ] # b*
  - [    -0.000000000000000,     0.000000000000000,     0.054983950276790 ] # c*

unit_cell:
  lattice:
  - [     2.130461629662194,    -3.690067786150881,     0.000000000000001 ] # a
  - [     2.130461629662194,     3.690067786150881,    -0.000000000000001 ] # b
  - [    -0.000000000000001,    -0.000000000000009,    18.187125424164279 ] # c
  points:
  - symbol: Ge # 1
    coordinates: [  0.000000000000000,  0.000000000000002,  0.330990540045183 ]
    mass: 72.640000
    reduced_to: 1
  - symbol: Ge # 2
    coordinates: [  0.000000000000001,  0.000000000000002,  0.669009459954818 ]
    mass: 72.640000
    reduced_to: 2
  - symbol: Sb # 3
    coordinates: [  0.333333333333334,  0.666666666666669,  0.112187977469498 ]
    mass: 121.760000
    reduced_to: 3
  - symbol: Sb # 4
    coordinates: [  0.666666666666668,  0.333333333333335,  0.887812022530503 ]
    mass: 121.760000
    reduced_to: 4
  - symbol: Te # 5
    coordinates: [  0.000000000000001,  0.000000000000002,  0.000000000000000 ]
    mass: 127.600000
    reduced_to: 5
  - symbol: Te # 6
    coordinates: [  0.333333333333334,  0.666666666666669,  0.791851310177563 ]
    mass: 127.600000
    reduced_to: 6
  - symbol: Te # 7
    coordinates: [  0.666666666666668,  0.333333333333335,  0.208148689822438 ]
    mass: 127.600000
    reduced_to: 7
  - symbol: Te # 8
    coordinates: [  0.333333333333334,  0.666666666666669,  0.409233632067421 ]
    mass: 127.600000
    reduced_to: 8
  - symbol: Te # 9
    coordinates: [  0.666666666666667,  0.333333333333336,  0.590766367932580 ]
    mass: 127.600000
    reduced_to: 9

supercell:
  lattice:
  - [    25.565539555946334,    -0.000000000000000,     0.000000000000000 ] # a
  - [     0.000000000000001,    29.520542289207050,    -0.000000000000009 ] # b
  - [    -0.000000000000001,    -0.000000000000017,    36.374250848328558 ] # c
  points:
  - symbol: Ge # 1
    coordinates: [  0.000000000000000,  0.000000000000000,  0.165495270022592 ]
    mass: 72.640000
    reduced_to: 1
  - symbol: Ge # 2
    coordinates: [  0.083333333333334,  0.875000000000000,  0.165495270022592 ]
    mass: 72.640000
    reduced_to: 1
  - symbol: Ge # 3
    coordinates: [  0.166666666666667,  0.750000000000000,  0.165495270022592 ]
    mass: 72.640000
    reduced_to: 1
  - symbol: Ge # 4
    coordinates: [  0.250000000000000,  0.625000000000000,  0.165495270022592 ]
    mass: 72.640000
    reduced_to: 1
  - symbol: Ge # 5
    coordinates: [  0.333333333333334,  0.500000000000000,  0.165495270022592 ]
    mass: 72.640000
    reduced_to: 1
  - symbol: Ge # 6
    coordinates: [  0.416666666666667,  0.375000000000000,  0.165495270022592 ]
    mass: 72.640000
    reduced_to: 1
  - symbol: Ge # 7
    coordinates: [  0.500000000000000,  0.250000000000000,  0.165495270022592 ]
    mass: 72.640000
    reduced_to: 1
  - symbol: Ge # 8
    coordinates: [  0.583333333333334,  0.125000000000000,  0.165495270022592 ]
    mass: 72.640000
    reduced_to: 1
  - symbol: Ge # 9
    coordinates: [  0.666666666666667,  0.000000000000000,  0.165495270022592 ]
    mass: 72.640000
    reduced_to: 1
  - symbol: Ge # 10
    coordinates: [  0.750000000000000,  0.875000000000000,  0.165495270022592 ]
    mass: 72.640000
    reduced_to: 1
  - symbol: Ge # 11
    coordinates: [  0.083333333333334,  0.125000000000000,  0.165495270022592 ]
    mass: 72.640000
    reduced_to: 1
  - symbol: Ge # 12
    coordinates: [  0.166666666666667,  0.000000000000000,  0.165495270022592 ]
    mass: 72.640000
    reduced_to: 1
  - symbol: Ge # 13
    coordinates: [  0.250000000000000,  0.875000000000000,  0.165495270022592 ]
    mass: 72.640000
    reduced_to: 1
  - symbol: Ge # 14
    coordinates: [  0.333333333333334,  0.750000000000000,  0.165495270022592 ]
    mass: 72.640000
    reduced_to: 1
  - symbol: Ge # 15
    coordinates: [  0.416666666666667,  0.625000000000000,  0.165495270022592 ]
    mass: 72.640000
    reduced_to: 1
  - symbol: Ge # 16
    coordinates: [  0.500000000000000,  0.500000000000000,  0.165495270022592 ]
    mass: 72.640000
    reduced_to: 1
  - symbol: Ge # 17
    coordinates: [  0.583333333333334,  0.375000000000000,  0.165495270022592 ]
    mass: 72.640000
    reduced_to: 1
  - symbol: Ge # 18
    coordinates: [  0.666666666666667,  0.250000000000000,  0.165495270022592 ]
    mass: 72.640000
    reduced_to: 1
  - symbol: Ge # 19
    coordinates: [  0.750000000000000,  0.125000000000000,  0.165495270022592 ]
    mass: 72.640000
    reduced_to: 1
  - symbol: Ge # 20
    coordinates: [  0.833333333333333,  0.000000000000000,  0.165495270022592 ]
    mass: 72.640000
    reduced_to: 1
  - symbol: Ge # 21
    coordinates: [  0.166666666666667,  0.250000000000000,  0.165495270022592 ]
    mass: 72.640000
    reduced_to: 1
  - symbol: Ge # 22
    coordinates: [  0.250000000000000,  0.125000000000000,  0.165495270022592 ]
    mass: 72.640000
    reduced_to: 1
  - symbol: Ge # 23
    coordinates: [  0.333333333333334,  0.000000000000000,  0.165495270022592 ]
    mass: 72.640000
    reduced_to: 1
  - symbol: Ge # 24
    coordinates: [  0.416666666666667,  0.875000000000000,  0.165495270022592 ]
    mass: 72.640000
    reduced_to: 1
  - symbol: Ge # 25
    coordinates: [  0.500000000000000,  0.750000000000000,  0.165495270022592 ]
    mass: 72.640000
    reduced_to: 1
  - symbol: Ge # 26
    coordinates: [  0.583333333333334,  0.625000000000000,  0.165495270022592 ]
    mass: 72.640000
    reduced_to: 1
  - symbol: Ge # 27
    coordinates: [  0.666666666666667,  0.500000000000000,  0.165495270022592 ]
    mass: 72.640000
    reduced_to: 1
  - symbol: Ge # 28
    coordinates: [  0.750000000000000,  0.375000000000000,  0.165495270022592 ]
    mass: 72.640000
    reduced_to: 1
  - symbol: Ge # 29
    coordinates: [  0.833333333333334,  0.250000000000000,  0.165495270022592 ]
    mass: 72.640000
    reduced_to: 1
  - symbol: Ge # 30
    coordinates: [  0.916666666666667,  0.125000000000000,  0.165495270022592 ]
    mass: 72.640000
    reduced_to: 1
  - symbol: Ge # 31
    coordinates: [  0.250000000000000,  0.375000000000000,  0.165495270022592 ]
    mass: 72.640000
    reduced_to: 1
  - symbol: Ge # 32
    coordinates: [  0.333333333333334,  0.250000000000000,  0.165495270022592 ]
    mass: 72.640000
    reduced_to: 1
  - symbol: Ge # 33
    coordinates: [  0.416666666666667,  0.125000000000000,  0.165495270022592 ]
    mass: 72.640000
    reduced_to: 1
  - symbol: Ge # 34
    coordinates: [  0.500000000000000,  0.000000000000000,  0.165495270022592 ]
    mass: 72.640000
    reduced_to: 1
  - symbol: Ge # 35
    coordinates: [  0.583333333333334,  0.875000000000000,  0.165495270022592 ]
    mass: 72.640000
    reduced_to: 1
  - symbol: Ge # 36
    coordinates: [  0.666666666666667,  0.750000000000000,  0.165495270022592 ]
    mass: 72.640000
    reduced_to: 1
  - symbol: Ge # 37
    coordinates: [  0.750000000000000,  0.625000000000000,  0.165495270022592 ]
    mass: 72.640000
    reduced_to: 1
  - symbol: Ge # 38
    coordinates: [  0.833333333333334,  0.500000000000000,  0.165495270022592 ]
    mass: 72.640000
    reduced_to: 1
  - symbol: Ge # 39
    coordinates: [  0.916666666666667,  0.375000000000000,  0.165495270022592 ]
    mass: 72.640000
    reduced_to: 1
  - symbol: Ge # 40
    coordinates: [  0.000000000000000,  0.250000000000000,  0.165495270022592 ]
    mass: 72.640000
    reduced_to: 1
  - symbol: Ge # 41
    coordinates: [  0.833333333333334,  0.750000000000000,  0.165495270022592 ]
    mass: 72.640000
    reduced_to: 1
  - symbol: Ge # 42
    coordinates: [  0.916666666666667,  0.625000000000000,  0.165495270022592 ]
    mass: 72.640000
    reduced_to: 1
  - symbol: Ge # 43
    coordinates: [  0.000000000000000,  0.500000000000000,  0.165495270022592 ]
    mass: 72.640000
    reduced_to: 1
  - symbol: Ge # 44
    coordinates: [  0.083333333333334,  0.375000000000000,  0.165495270022592 ]
    mass: 72.640000
    reduced_to: 1
  - symbol: Ge # 45
    coordinates: [  0.916666666666667,  0.875000000000000,  0.165495270022592 ]
    mass: 72.640000
    reduced_to: 1
  - symbol: Ge # 46
    coordinates: [  0.000000000000000,  0.750000000000000,  0.165495270022592 ]
    mass: 72.640000
    reduced_to: 1
  - symbol: Ge # 47
    coordinates: [  0.083333333333334,  0.625000000000000,  0.165495270022592 ]
    mass: 72.640000
    reduced_to: 1
  - symbol: Ge # 48
    coordinates: [  0.166666666666667,  0.500000000000000,  0.165495270022592 ]
    mass: 72.640000
    reduced_to: 1
  - symbol: Ge # 49
    coordinates: [  0.000000000000000,  0.000000000000000,  0.665495270022592 ]
    mass: 72.640000
    reduced_to: 1
  - symbol: Ge # 50
    coordinates: [  0.083333333333334,  0.875000000000000,  0.665495270022592 ]
    mass: 72.640000
    reduced_to: 1
  - symbol: Ge # 51
    coordinates: [  0.166666666666667,  0.750000000000000,  0.665495270022592 ]
    mass: 72.640000
    reduced_to: 1
  - symbol: Ge # 52
    coordinates: [  0.250000000000000,  0.625000000000000,  0.665495270022592 ]
    mass: 72.640000
    reduced_to: 1
  - symbol: Ge # 53
    coordinates: [  0.333333333333334,  0.500000000000000,  0.665495270022592 ]
    mass: 72.640000
    reduced_to: 1
  - symbol: Ge # 54
    coordinates: [  0.416666666666667,  0.375000000000000,  0.665495270022592 ]
    mass: 72.640000
    reduced_to: 1
  - symbol: Ge # 55
    coordinates: [  0.500000000000000,  0.250000000000000,  0.665495270022592 ]
    mass: 72.640000
    reduced_to: 1
  - symbol: Ge # 56
    coordinates: [  0.583333333333334,  0.125000000000000,  0.665495270022592 ]
    mass: 72.640000
    reduced_to: 1
  - symbol: Ge # 57
    coordinates: [  0.666666666666667,  0.000000000000000,  0.665495270022592 ]
    mass: 72.640000
    reduced_to: 1
  - symbol: Ge # 58
    coordinates: [  0.750000000000000,  0.875000000000000,  0.665495270022592 ]
    mass: 72.640000
    reduced_to: 1
  - symbol: Ge # 59
    coordinates: [  0.083333333333334,  0.125000000000000,  0.665495270022592 ]
    mass: 72.640000
    reduced_to: 1
  - symbol: Ge # 60
    coordinates: [  0.166666666666667,  0.000000000000000,  0.665495270022592 ]
    mass: 72.640000
    reduced_to: 1
  - symbol: Ge # 61
    coordinates: [  0.250000000000000,  0.875000000000000,  0.665495270022592 ]
    mass: 72.640000
    reduced_to: 1
  - symbol: Ge # 62
    coordinates: [  0.333333333333334,  0.750000000000000,  0.665495270022592 ]
    mass: 72.640000
    reduced_to: 1
  - symbol: Ge # 63
    coordinates: [  0.416666666666667,  0.625000000000000,  0.665495270022592 ]
    mass: 72.640000
    reduced_to: 1
  - symbol: Ge # 64
    coordinates: [  0.500000000000000,  0.500000000000000,  0.665495270022592 ]
    mass: 72.640000
    reduced_to: 1
  - symbol: Ge # 65
    coordinates: [  0.583333333333334,  0.375000000000000,  0.665495270022592 ]
    mass: 72.640000
    reduced_to: 1
  - symbol: Ge # 66
    coordinates: [  0.666666666666667,  0.250000000000000,  0.665495270022592 ]
    mass: 72.640000
    reduced_to: 1
  - symbol: Ge # 67
    coordinates: [  0.750000000000000,  0.125000000000000,  0.665495270022592 ]
    mass: 72.640000
    reduced_to: 1
  - symbol: Ge # 68
    coordinates: [  0.833333333333333,  0.000000000000000,  0.665495270022592 ]
    mass: 72.640000
    reduced_to: 1
  - symbol: Ge # 69
    coordinates: [  0.166666666666667,  0.250000000000000,  0.665495270022592 ]
    mass: 72.640000
    reduced_to: 1
  - symbol: Ge # 70
    coordinates: [  0.250000000000000,  0.125000000000000,  0.665495270022592 ]
    mass: 72.640000
    reduced_to: 1
  - symbol: Ge # 71
    coordinates: [  0.333333333333334,  0.000000000000000,  0.665495270022592 ]
    mass: 72.640000
    reduced_to: 1
  - symbol: Ge # 72
    coordinates: [  0.416666666666667,  0.875000000000000,  0.665495270022592 ]
    mass: 72.640000
    reduced_to: 1
  - symbol: Ge # 73
    coordinates: [  0.500000000000000,  0.750000000000000,  0.665495270022592 ]
    mass: 72.640000
    reduced_to: 1
  - symbol: Ge # 74
    coordinates: [  0.583333333333334,  0.625000000000000,  0.665495270022592 ]
    mass: 72.640000
    reduced_to: 1
  - symbol: Ge # 75
    coordinates: [  0.666666666666667,  0.500000000000000,  0.665495270022592 ]
    mass: 72.640000
    reduced_to: 1
  - symbol: Ge # 76
    coordinates: [  0.750000000000000,  0.375000000000000,  0.665495270022592 ]
    mass: 72.640000
    reduced_to: 1
  - symbol: Ge # 77
    coordinates: [  0.833333333333334,  0.250000000000000,  0.665495270022592 ]
    mass: 72.640000
    reduced_to: 1
  - symbol: Ge # 78
    coordinates: [  0.916666666666667,  0.125000000000000,  0.665495270022592 ]
    mass: 72.640000
    reduced_to: 1
  - symbol: Ge # 79
    coordinates: [  0.250000000000000,  0.375000000000000,  0.665495270022592 ]
    mass: 72.640000
    reduced_to: 1
  - symbol: Ge # 80
    coordinates: [  0.333333333333334,  0.250000000000000,  0.665495270022592 ]
    mass: 72.640000
    reduced_to: 1
  - symbol: Ge # 81
    coordinates: [  0.416666666666667,  0.125000000000000,  0.665495270022592 ]
    mass: 72.640000
    reduced_to: 1
  - symbol: Ge # 82
    coordinates: [  0.500000000000000,  0.000000000000000,  0.665495270022592 ]
    mass: 72.640000
    reduced_to: 1
  - symbol: Ge # 83
    coordinates: [  0.583333333333334,  0.875000000000000,  0.665495270022592 ]
    mass: 72.640000
    reduced_to: 1
  - symbol: Ge # 84
    coordinates: [  0.666666666666667,  0.750000000000000,  0.665495270022592 ]
    mass: 72.640000
    reduced_to: 1
  - symbol: Ge # 85
    coordinates: [  0.750000000000000,  0.625000000000000,  0.665495270022592 ]
    mass: 72.640000
    reduced_to: 1
  - symbol: Ge # 86
    coordinates: [  0.833333333333334,  0.500000000000000,  0.665495270022592 ]
    mass: 72.640000
    reduced_to: 1
  - symbol: Ge # 87
    coordinates: [  0.916666666666667,  0.375000000000000,  0.665495270022592 ]
    mass: 72.640000
    reduced_to: 1
  - symbol: Ge # 88
    coordinates: [  0.000000000000000,  0.250000000000000,  0.665495270022592 ]
    mass: 72.640000
    reduced_to: 1
  - symbol: Ge # 89
    coordinates: [  0.833333333333334,  0.750000000000000,  0.665495270022592 ]
    mass: 72.640000
    reduced_to: 1
  - symbol: Ge # 90
    coordinates: [  0.916666666666667,  0.625000000000000,  0.665495270022592 ]
    mass: 72.640000
    reduced_to: 1
  - symbol: Ge # 91
    coordinates: [  0.000000000000000,  0.500000000000000,  0.665495270022592 ]
    mass: 72.640000
    reduced_to: 1
  - symbol: Ge # 92
    coordinates: [  0.083333333333334,  0.375000000000000,  0.665495270022592 ]
    mass: 72.640000
    reduced_to: 1
  - symbol: Ge # 93
    coordinates: [  0.916666666666667,  0.875000000000000,  0.665495270022592 ]
    mass: 72.640000
    reduced_to: 1
  - symbol: Ge # 94
    coordinates: [  0.000000000000000,  0.750000000000000,  0.665495270022592 ]
    mass: 72.640000
    reduced_to: 1
  - symbol: Ge # 95
    coordinates: [  0.083333333333334,  0.625000000000000,  0.665495270022592 ]
    mass: 72.640000
    reduced_to: 1
  - symbol: Ge # 96
    coordinates: [  0.166666666666667,  0.500000000000000,  0.665495270022592 ]
    mass: 72.640000
    reduced_to: 1
  - symbol: Ge # 97
    coordinates: [  0.000000000000000,  0.000000000000000,  0.334504729977409 ]
    mass: 72.640000
    reduced_to: 97
  - symbol: Ge # 98
    coordinates: [  0.083333333333334,  0.875000000000000,  0.334504729977409 ]
    mass: 72.640000
    reduced_to: 97
  - symbol: Ge # 99
    coordinates: [  0.166666666666667,  0.750000000000000,  0.334504729977409 ]
    mass: 72.640000
    reduced_to: 97
  - symbol: Ge # 100
    coordinates: [  0.250000000000000,  0.625000000000000,  0.334504729977409 ]
    mass: 72.640000
    reduced_to: 97
  - symbol: Ge # 101
    coordinates: [  0.333333333333334,  0.500000000000000,  0.334504729977409 ]
    mass: 72.640000
    reduced_to: 97
  - symbol: Ge # 102
    coordinates: [  0.416666666666667,  0.375000000000000,  0.334504729977409 ]
    mass: 72.640000
    reduced_to: 97
  - symbol: Ge # 103
    coordinates: [  0.500000000000000,  0.250000000000000,  0.334504729977409 ]
    mass: 72.640000
    reduced_to: 97
  - symbol: Ge # 104
    coordinates: [  0.583333333333334,  0.125000000000000,  0.334504729977409 ]
    mass: 72.640000
    reduced_to: 97
  - symbol: Ge # 105
    coordinates: [  0.666666666666667,  0.000000000000000,  0.334504729977409 ]
    mass: 72.640000
    reduced_to: 97
  - symbol: Ge # 106
    coordinates: [  0.750000000000000,  0.875000000000000,  0.334504729977409 ]
    mass: 72.640000
    reduced_to: 97
  - symbol: Ge # 107
    coordinates: [  0.083333333333334,  0.125000000000000,  0.334504729977409 ]
    mass: 72.640000
    reduced_to: 97
  - symbol: Ge # 108
    coordinates: [  0.166666666666667,  0.000000000000000,  0.334504729977409 ]
    mass: 72.640000
    reduced_to: 97
  - symbol: Ge # 109
    coordinates: [  0.250000000000000,  0.875000000000000,  0.334504729977409 ]
    mass: 72.640000
    reduced_to: 97
  - symbol: Ge # 110
    coordinates: [  0.333333333333334,  0.750000000000000,  0.334504729977409 ]
    mass: 72.640000
    reduced_to: 97
  - symbol: Ge # 111
    coordinates: [  0.416666666666667,  0.625000000000000,  0.334504729977409 ]
    mass: 72.640000
    reduced_to: 97
  - symbol: Ge # 112
    coordinates: [  0.500000000000000,  0.500000000000000,  0.334504729977409 ]
    mass: 72.640000
    reduced_to: 97
  - symbol: Ge # 113
    coordinates: [  0.583333333333334,  0.375000000000000,  0.334504729977409 ]
    mass: 72.640000
    reduced_to: 97
  - symbol: Ge # 114
    coordinates: [  0.666666666666667,  0.250000000000000,  0.334504729977409 ]
    mass: 72.640000
    reduced_to: 97
  - symbol: Ge # 115
    coordinates: [  0.750000000000000,  0.125000000000000,  0.334504729977409 ]
    mass: 72.640000
    reduced_to: 97
  - symbol: Ge # 116
    coordinates: [  0.833333333333333,  0.000000000000000,  0.334504729977409 ]
    mass: 72.640000
    reduced_to: 97
  - symbol: Ge # 117
    coordinates: [  0.166666666666667,  0.250000000000000,  0.334504729977409 ]
    mass: 72.640000
    reduced_to: 97
  - symbol: Ge # 118
    coordinates: [  0.250000000000000,  0.125000000000000,  0.334504729977409 ]
    mass: 72.640000
    reduced_to: 97
  - symbol: Ge # 119
    coordinates: [  0.333333333333334,  0.000000000000000,  0.334504729977409 ]
    mass: 72.640000
    reduced_to: 97
  - symbol: Ge # 120
    coordinates: [  0.416666666666667,  0.875000000000000,  0.334504729977409 ]
    mass: 72.640000
    reduced_to: 97
  - symbol: Ge # 121
    coordinates: [  0.500000000000000,  0.750000000000000,  0.334504729977409 ]
    mass: 72.640000
    reduced_to: 97
  - symbol: Ge # 122
    coordinates: [  0.583333333333334,  0.625000000000000,  0.334504729977409 ]
    mass: 72.640000
    reduced_to: 97
  - symbol: Ge # 123
    coordinates: [  0.666666666666667,  0.500000000000000,  0.334504729977409 ]
    mass: 72.640000
    reduced_to: 97
  - symbol: Ge # 124
    coordinates: [  0.750000000000000,  0.375000000000000,  0.334504729977409 ]
    mass: 72.640000
    reduced_to: 97
  - symbol: Ge # 125
    coordinates: [  0.833333333333334,  0.250000000000000,  0.334504729977409 ]
    mass: 72.640000
    reduced_to: 97
  - symbol: Ge # 126
    coordinates: [  0.916666666666667,  0.125000000000000,  0.334504729977409 ]
    mass: 72.640000
    reduced_to: 97
  - symbol: Ge # 127
    coordinates: [  0.250000000000000,  0.375000000000000,  0.334504729977409 ]
    mass: 72.640000
    reduced_to: 97
  - symbol: Ge # 128
    coordinates: [  0.333333333333334,  0.250000000000000,  0.334504729977409 ]
    mass: 72.640000
    reduced_to: 97
  - symbol: Ge # 129
    coordinates: [  0.416666666666667,  0.125000000000000,  0.334504729977409 ]
    mass: 72.640000
    reduced_to: 97
  - symbol: Ge # 130
    coordinates: [  0.500000000000000,  0.000000000000000,  0.334504729977409 ]
    mass: 72.640000
    reduced_to: 97
  - symbol: Ge # 131
    coordinates: [  0.583333333333334,  0.875000000000000,  0.334504729977409 ]
    mass: 72.640000
    reduced_to: 97
  - symbol: Ge # 132
    coordinates: [  0.666666666666667,  0.750000000000000,  0.334504729977409 ]
    mass: 72.640000
    reduced_to: 97
  - symbol: Ge # 133
    coordinates: [  0.750000000000000,  0.625000000000000,  0.334504729977409 ]
    mass: 72.640000
    reduced_to: 97
  - symbol: Ge # 134
    coordinates: [  0.833333333333334,  0.500000000000000,  0.334504729977409 ]
    mass: 72.640000
    reduced_to: 97
  - symbol: Ge # 135
    coordinates: [  0.916666666666667,  0.375000000000000,  0.334504729977409 ]
    mass: 72.640000
    reduced_to: 97
  - symbol: Ge # 136
    coordinates: [  0.000000000000000,  0.250000000000000,  0.334504729977409 ]
    mass: 72.640000
    reduced_to: 97
  - symbol: Ge # 137
    coordinates: [  0.833333333333334,  0.750000000000000,  0.334504729977409 ]
    mass: 72.640000
    reduced_to: 97
  - symbol: Ge # 138
    coordinates: [  0.916666666666667,  0.625000000000000,  0.334504729977409 ]
    mass: 72.640000
    reduced_to: 97
  - symbol: Ge # 139
    coordinates: [  0.000000000000000,  0.500000000000000,  0.334504729977409 ]
    mass: 72.640000
    reduced_to: 97
  - symbol: Ge # 140
    coordinates: [  0.083333333333333,  0.375000000000000,  0.334504729977409 ]
    mass: 72.640000
    reduced_to: 97
  - symbol: Ge # 141
    coordinates: [  0.916666666666667,  0.875000000000000,  0.334504729977409 ]
    mass: 72.640000
    reduced_to: 97
  - symbol: Ge # 142
    coordinates: [  0.000000000000000,  0.750000000000000,  0.334504729977409 ]
    mass: 72.640000
    reduced_to: 97
  - symbol: Ge # 143
    coordinates: [  0.083333333333334,  0.625000000000000,  0.334504729977409 ]
    mass: 72.640000
    reduced_to: 97
  - symbol: Ge # 144
    coordinates: [  0.166666666666667,  0.500000000000000,  0.334504729977409 ]
    mass: 72.640000
    reduced_to: 97
  - symbol: Ge # 145
    coordinates: [  0.000000000000000,  0.000000000000000,  0.834504729977409 ]
    mass: 72.640000
    reduced_to: 97
  - symbol: Ge # 146
    coordinates: [  0.083333333333334,  0.875000000000000,  0.834504729977409 ]
    mass: 72.640000
    reduced_to: 97
  - symbol: Ge # 147
    coordinates: [  0.166666666666667,  0.750000000000000,  0.834504729977409 ]
    mass: 72.640000
    reduced_to: 97
  - symbol: Ge # 148
    coordinates: [  0.250000000000000,  0.625000000000000,  0.834504729977409 ]
    mass: 72.640000
    reduced_to: 97
  - symbol: Ge # 149
    coordinates: [  0.333333333333334,  0.500000000000000,  0.834504729977409 ]
    mass: 72.640000
    reduced_to: 97
  - symbol: Ge # 150
    coordinates: [  0.416666666666667,  0.375000000000000,  0.834504729977409 ]
    mass: 72.640000
    reduced_to: 97
  - symbol: Ge # 151
    coordinates: [  0.500000000000000,  0.250000000000000,  0.834504729977409 ]
    mass: 72.640000
    reduced_to: 97
  - symbol: Ge # 152
    coordinates: [  0.583333333333334,  0.125000000000000,  0.834504729977409 ]
    mass: 72.640000
    reduced_to: 97
  - symbol: Ge # 153
    coordinates: [  0.666666666666667,  0.000000000000000,  0.834504729977409 ]
    mass: 72.640000
    reduced_to: 97
  - symbol: Ge # 154
    coordinates: [  0.750000000000000,  0.875000000000000,  0.834504729977409 ]
    mass: 72.640000
    reduced_to: 97
  - symbol: Ge # 155
    coordinates: [  0.083333333333334,  0.125000000000000,  0.834504729977409 ]
    mass: 72.640000
    reduced_to: 97
  - symbol: Ge # 156
    coordinates: [  0.166666666666667,  0.000000000000000,  0.834504729977409 ]
    mass: 72.640000
    reduced_to: 97
  - symbol: Ge # 157
    coordinates: [  0.250000000000000,  0.875000000000000,  0.834504729977409 ]
    mass: 72.640000
    reduced_to: 97
  - symbol: Ge # 158
    coordinates: [  0.333333333333334,  0.750000000000000,  0.834504729977409 ]
    mass: 72.640000
    reduced_to: 97
  - symbol: Ge # 159
    coordinates: [  0.416666666666667,  0.625000000000000,  0.834504729977409 ]
    mass: 72.640000
    reduced_to: 97
  - symbol: Ge # 160
    coordinates: [  0.500000000000000,  0.500000000000000,  0.834504729977409 ]
    mass: 72.640000
    reduced_to: 97
  - symbol: Ge # 161
    coordinates: [  0.583333333333334,  0.375000000000000,  0.834504729977409 ]
    mass: 72.640000
    reduced_to: 97
  - symbol: Ge # 162
    coordinates: [  0.666666666666667,  0.250000000000000,  0.834504729977409 ]
    mass: 72.640000
    reduced_to: 97
  - symbol: Ge # 163
    coordinates: [  0.750000000000000,  0.125000000000000,  0.834504729977409 ]
    mass: 72.640000
    reduced_to: 97
  - symbol: Ge # 164
    coordinates: [  0.833333333333333,  0.000000000000000,  0.834504729977409 ]
    mass: 72.640000
    reduced_to: 97
  - symbol: Ge # 165
    coordinates: [  0.166666666666667,  0.250000000000000,  0.834504729977409 ]
    mass: 72.640000
    reduced_to: 97
  - symbol: Ge # 166
    coordinates: [  0.250000000000000,  0.125000000000000,  0.834504729977409 ]
    mass: 72.640000
    reduced_to: 97
  - symbol: Ge # 167
    coordinates: [  0.333333333333334,  0.000000000000000,  0.834504729977409 ]
    mass: 72.640000
    reduced_to: 97
  - symbol: Ge # 168
    coordinates: [  0.416666666666667,  0.875000000000000,  0.834504729977409 ]
    mass: 72.640000
    reduced_to: 97
  - symbol: Ge # 169
    coordinates: [  0.500000000000000,  0.750000000000000,  0.834504729977409 ]
    mass: 72.640000
    reduced_to: 97
  - symbol: Ge # 170
    coordinates: [  0.583333333333334,  0.625000000000000,  0.834504729977409 ]
    mass: 72.640000
    reduced_to: 97
  - symbol: Ge # 171
    coordinates: [  0.666666666666667,  0.500000000000000,  0.834504729977409 ]
    mass: 72.640000
    reduced_to: 97
  - symbol: Ge # 172
    coordinates: [  0.750000000000000,  0.375000000000000,  0.834504729977409 ]
    mass: 72.640000
    reduced_to: 97
  - symbol: Ge # 173
    coordinates: [  0.833333333333334,  0.250000000000000,  0.834504729977409 ]
    mass: 72.640000
    reduced_to: 97
  - symbol: Ge # 174
    coordinates: [  0.916666666666667,  0.125000000000000,  0.834504729977409 ]
    mass: 72.640000
    reduced_to: 97
  - symbol: Ge # 175
    coordinates: [  0.250000000000000,  0.375000000000000,  0.834504729977409 ]
    mass: 72.640000
    reduced_to: 97
  - symbol: Ge # 176
    coordinates: [  0.333333333333334,  0.250000000000000,  0.834504729977409 ]
    mass: 72.640000
    reduced_to: 97
  - symbol: Ge # 177
    coordinates: [  0.416666666666667,  0.125000000000000,  0.834504729977409 ]
    mass: 72.640000
    reduced_to: 97
  - symbol: Ge # 178
    coordinates: [  0.500000000000000,  0.000000000000000,  0.834504729977409 ]
    mass: 72.640000
    reduced_to: 97
  - symbol: Ge # 179
    coordinates: [  0.583333333333334,  0.875000000000000,  0.834504729977409 ]
    mass: 72.640000
    reduced_to: 97
  - symbol: Ge # 180
    coordinates: [  0.666666666666667,  0.750000000000000,  0.834504729977409 ]
    mass: 72.640000
    reduced_to: 97
  - symbol: Ge # 181
    coordinates: [  0.750000000000000,  0.625000000000000,  0.834504729977409 ]
    mass: 72.640000
    reduced_to: 97
  - symbol: Ge # 182
    coordinates: [  0.833333333333334,  0.500000000000000,  0.834504729977409 ]
    mass: 72.640000
    reduced_to: 97
  - symbol: Ge # 183
    coordinates: [  0.916666666666667,  0.375000000000000,  0.834504729977409 ]
    mass: 72.640000
    reduced_to: 97
  - symbol: Ge # 184
    coordinates: [  0.000000000000000,  0.250000000000000,  0.834504729977409 ]
    mass: 72.640000
    reduced_to: 97
  - symbol: Ge # 185
    coordinates: [  0.833333333333334,  0.750000000000000,  0.834504729977409 ]
    mass: 72.640000
    reduced_to: 97
  - symbol: Ge # 186
    coordinates: [  0.916666666666667,  0.625000000000000,  0.834504729977409 ]
    mass: 72.640000
    reduced_to: 97
  - symbol: Ge # 187
    coordinates: [  0.000000000000000,  0.500000000000000,  0.834504729977409 ]
    mass: 72.640000
    reduced_to: 97
  - symbol: Ge # 188
    coordinates: [  0.083333333333333,  0.375000000000000,  0.834504729977409 ]
    mass: 72.640000