phonopy:
  version: "2.21.0"
  frequency_unit_conversion_factor: 15.633302
  symmetry_tolerance: 1.00000e-04

space_group:
  type: "P-3m1"
  number: 164
  Hall_symbol: "-P 3 2\""

primitive_matrix:
- [  1.000000000000000,  0.000000000000000,  0.000000000000000 ]
- [  0.000000000000000,  1.000000000000000, -0.000000000000000 ]
- [  0.000000000000000,  0.000000000000000,  1.000000000000000 ]

supercell_matrix:
- [   6,   6,   0 ]
- [  -4,   4,   0 ]
- [   0,   0,   2 ]

primitive_cell:
  lattice:
  - [     2.181855629738676,    -3.779084805487577,     0.000000000000000 ] # a
  - [     2.181855629738678,     3.779084805487577,     0.000000000000000 ] # b
  - [    -0.000000000000000,     0.000000000000000,    17.858623887099025 ] # c
  points:
  - symbol: Sb # 1
    coordinates: [  1.000000000000000,  0.000000000000000,  0.652214704168425 ]
    mass: 121.760000
  - symbol: Sb # 2
    coordinates: [  1.000000000000000,  0.000000000000000,  0.347785295831575 ]
    mass: 121.760000
  - symbol: Sb # 3
    coordinates: [  0.666666666666664,  0.333333333333336,  0.434070421481993 ]
    mass: 121.760000
  - symbol: Sb # 4
    coordinates: [  0.333333333333336,  0.666666666666663,  0.889736354809812 ]
    mass: 121.760000
  - symbol: Sb # 5
    coordinates: [  0.666666666666664,  0.333333333333336,  0.110263645190188 ]
    mass: 121.760000
  - symbol: Sb # 6
    coordinates: [  0.333333333333336,  0.666666666666663,  0.565929578518007 ]
    mass: 121.760000
  - symbol: Te # 7
    coordinates: [  0.000000000000000,  0.000000000000000,  0.000000000000000 ]
    mass: 127.600000
  - symbol: Te # 8
    coordinates: [  0.666666666666664,  0.333333333333336,  0.794542970184011 ]
    mass: 127.600000
  - symbol: Te # 9
    coordinates: [  0.333333333333336,  0.666666666666663,  0.205457029815990 ]
    mass: 127.600000
  reciprocal_lattice: # without 2pi
  - [     0.229162733402249,    -0.132307165818019,     0.000000000000000 ] # a*
  - [     0.229162733402249,     0.132307165818019,    -0.000000000000000 ] # b*
  - [     0.000000000000000,    -0.000000000000000,     0.055995355875230 ] # c*

unit_cell:
  lattice:
  - [     2.181855629738676,    -3.779084805487578,    -0.000000000000000 ] # a
  - [     2.181855629738678,     3.779084805487578,     0.000000000000000 ] # b
  - [     0.000000000000000,     0.000000000000000,    17.858623887099025 ] # c
  points:
  - symbol: Sb # 1
    coordinates: [ -0.000000000000000,  0.000000000000000,  0.652214704168425 ]
    mass: 121.760000
    reduced_to: 1
  - symbol: Sb # 2
    coordinates: [  0.000000000000000, -0.000000000000000,  0.347785295831575 ]
    mass: 121.760000
    reduced_to: 2
  - symbol: Sb # 3
    coordinates: [  0.666666666666664,  0.333333333333336,  0.434070421481993 ]
    mass: 121.760000
    reduced_to: 3
  - symbol: Sb # 4
    coordinates: [  0.333333333333336,  0.666666666666664,  0.889736354809812 ]
    mass: 121.760000
    reduced_to: 4
  - symbol: Sb # 5
    coordinates: [  0.666666666666664,  0.333333333333336,  0.110263645190188 ]
    mass: 121.760000
    reduced_to: 5
  - symbol: Sb # 6
    coordinates: [  0.333333333333336,  0.666666666666664,  0.565929578518007 ]
    mass: 121.760000
    reduced_to: 6
  - symbol: Te # 7
    coordinates: [ -0.000000000000000, -0.000000000000000,  0.000000000000000 ]
    mass: 127.600000
    reduced_to: 7
  - symbol: Te # 8
    coordinates: [  0.666666666666664,  0.333333333333336,  0.794542970184011 ]
    mass: 127.600000
    reduced_to: 8
  - symbol: Te # 9
    coordinates: [  0.333333333333336,  0.666666666666664,  0.205457029815990 ]
    mass: 127.600000
    reduced_to: 9

supercell:
  lattice:
  - [     4.363711259477347,   -37.790848054875774,     0.000000000000000 ] # a
  - [    21.818556297386770,    -7.558169610975154,     0.000000000000000 ] # b
  - [     0.000000000000000,     0.000000000000000,    35.717247774198050 ] # c
  points:
  - symbol: Sb # 1
    coordinates: [  0.000000000000000,  0.000000000000000,  0.326107352084212 ]
    mass: 121.760000
    reduced_to: 1
  - symbol: Sb # 2
    coordinates: [  0.083333333333333,  0.083333333333333,  0.326107352084212 ]
    mass: 121.760000
    reduced_to: 1
  - symbol: Sb # 3
    coordinates: [  0.166666666666667,  0.166666666666667,  0.326107352084212 ]
    mass: 121.760000
    reduced_to: 1
  - symbol: Sb # 4
    coordinates: [  0.250000000000000,  0.250000000000000,  0.326107352084212 ]
    mass: 121.760000
    reduced_to: 1
  - symbol: Sb # 5
    coordinates: [  0.333333333333333,  0.333333333333333,  0.326107352084212 ]
    mass: 121.760000
    reduced_to: 1
  - symbol: Sb # 6
    coordinates: [  0.416666666666667,  0.416666666666667,  0.326107352084212 ]
    mass: 121.760000
    reduced_to: 1
  - symbol: Sb # 7
    coordinates: [  0.500000000000000,  0.500000000000000,  0.326107352084212 ]
    mass: 121.760000
    reduced_to: 1
  - symbol: Sb # 8
    coordinates: [  0.583333333333333,  0.583333333333333,  0.326107352084212 ]
    mass: 121.760000
    reduced_to: 1
  - symbol: Sb # 9
    coordinates: [  0.666666666666667,  0.666666666666667,  0.326107352084212 ]
    mass: 121.760000
    reduced_to: 1
  - symbol: Sb # 10
    coordinates: [  0.750000000000000,  0.750000000000000,  0.326107352084212 ]
    mass: 121.760000
    reduced_to: 1
  - symbol: Sb # 11
    coordinates: [  0.833333333333333,  0.833333333333333,  0.326107352084212 ]
    mass: 121.760000
    reduced_to: 1
  - symbol: Sb # 12
    coordinates: [  0.916666666666667,  0.916666666666667,  0.326107352084212 ]
    mass: 121.760000
    reduced_to: 1
  - symbol: Sb # 13
    coordinates: [  0.875000000000000,  0.125000000000000,  0.326107352084212 ]
    mass: 121.760000
    reduced_to: 1
  - symbol: Sb # 14
    coordinates: [  0.958333333333333,  0.208333333333333,  0.326107352084212 ]
    mass: 121.760000
    reduced_to: 1
  - symbol: Sb # 15
    coordinates: [  0.041666666666667,  0.291666666666667,  0.326107352084212 ]
    mass: 121.760000
    reduced_to: 1
  - symbol: Sb # 16
    coordinates: [  0.125000000000000,  0.375000000000000,  0.326107352084212 ]
    mass: 121.760000
    reduced_to: 1
  - symbol: Sb # 17
    coordinates: [  0.208333333333333,  0.458333333333333,  0.326107352084212 ]
    mass: 121.760000
    reduced_to: 1
  - symbol: Sb # 18
    coordinates: [  0.291666666666667,  0.541666666666667,  0.326107352084212 ]
    mass: 121.760000
    reduced_to: 1
  - symbol: Sb # 19
    coordinates: [  0.375000000000000,  0.625000000000000,  0.326107352084212 ]
    mass: 121.760000
    reduced_to: 1
  - symbol: Sb # 20
    coordinates: [  0.458333333333333,  0.708333333333333,  0.326107352084212 ]
    mass: 121.760000
    reduced_to: 1
  - symbol: Sb # 21
    coordinates: [  0.541666666666667,  0.791666666666667,  0.326107352084212 ]
    mass: 121.760000
    reduced_to: 1
  - symbol: Sb # 22
    coordinates: [  0.625000000000000,  0.875000000000000,  0.326107352084212 ]
    mass: 121.760000
    reduced_to: 1
  - symbol: Sb # 23
    coordinates: [  0.708333333333333,  0.958333333333333,  0.326107352084212 ]
    mass: 121.760000
    reduced_to: 1
  - symbol: Sb # 24
    coordinates: [  0.791666666666667,  0.041666666666667,  0.326107352084212 ]
    mass: 121.760000
    reduced_to: 1
  - symbol: Sb # 25
    coordinates: [  0.750000000000000,  0.250000000000000,  0.326107352084212 ]
    mass: 121.760000
    reduced_to: 1
  - symbol: Sb # 26
    coordinates: [  0.833333333333333,  0.333333333333333,  0.326107352084212 ]
    mass: 121.760000
    reduced_to: 1
  - symbol: Sb # 27
    coordinates: [  0.916666666666667,  0.416666666666667,  0.326107352084212 ]
    mass: 121.760000
    reduced_to: 1
  - symbol: Sb # 28
    coordinates: [  0.000000000000000,  0.500000000000000,  0.326107352084212 ]
    mass: 121.760000
    reduced_to: 1
  - symbol: Sb # 29
    coordinates: [  0.083333333333333,  0.583333333333333,  0.326107352084212 ]
    mass: 121.760000
    reduced_to: 1
  - symbol: Sb # 30
    coordinates: [  0.166666666666667,  0.666666666666667,  0.326107352084212 ]
    mass: 121.760000
    reduced_to: 1
  - symbol: Sb # 31
    coordinates: [  0.250000000000000,  0.750000000000000,  0.326107352084212 ]
    mass: 121.760000
    reduced_to: 1
  - symbol: Sb # 32
    coordinates: [  0.333333333333333,  0.833333333333333,  0.326107352084212 ]
    mass: 121.760000
    reduced_to: 1
  - symbol: Sb # 33
    coordinates: [  0.416666666666667,  0.916666666666667,  0.326107352084212 ]
    mass: 121.760000
    reduced_to: 1
  - symbol: Sb # 34
    coordinates: [  0.500000000000000,  0.000000000000000,  0.326107352084212 ]
    mass: 121.760000
    reduced_to: 1
  - symbol: Sb # 35
    coordinates: [  0.583333333333333,  0.083333333333333,  0.326107352084212 ]
    mass: 121.760000
    reduced_to: 1
  - symbol: Sb # 36
    coordinates: [  0.666666666666667,  0.166666666666667,  0.326107352084212 ]
    mass: 121.760000
    reduced_to: 1
  - symbol: Sb # 37
    coordinates: [  0.625000000000000,  0.375000000000000,  0.326107352084212 ]
    mass: 121.760000
    reduced_to: 1
  - symbol: Sb # 38
    coordinates: [  0.708333333333333,  0.458333333333333,  0.326107352084212 ]
    mass: 121.760000
    reduced_to: 1
  - symbol: Sb # 39
    coordinates: [  0.791666666666667,  0.541666666666667,  0.326107352084212 ]
    mass: 121.760000
    reduced_to: 1
  - symbol: Sb # 40
    coordinates: [  0.875000000000000,  0.625000000000000,  0.326107352084212 ]
    mass: 121.760000
    reduced_to: 1
  - symbol: Sb # 41
    coordinates: [  0.958333333333333,  0.708333333333333,  0.326107352084212 ]
    mass: 121.760000
    reduced_to: 1
  - symbol: Sb # 42
    coordinates: [  0.041666666666667,  0.791666666666667,  0.326107352084212 ]
    mass: 121.760000
    reduced_to: 1
  - symbol: Sb # 43
    coordinates: [  0.125000000000000,  0.875000000000000,  0.326107352084212 ]
    mass: 121.760000
    reduced_to: 1
  - symbol: Sb # 44
    coordinates: [  0.208333333333333,  0.958333333333333,  0.326107352084212 ]
    mass: 121.760000
    reduced_to: 1
  - symbol: Sb # 45
    coordinates: [  0.291666666666667,  0.041666666666667,  0.326107352084212 ]
    mass: 121.760000
    reduced_to: 1
  - symbol: Sb # 46
    coordinates: [  0.375000000000000,  0.125000000000000,  0.326107352084212 ]
    mass: 121.760000
    reduced_to: 1
  - symbol: Sb # 47
    coordinates: [  0.458333333333333,  0.208333333333333,  0.326107352084212 ]
    mass: 121.760000
    reduced_to: 1
  - symbol: Sb # 48
    coordinates: [  0.541666666666667,  0.291666666666667,  0.326107352084212 ]
    mass: 121.760000
    reduced_to: 1
  - symbol: Sb # 49
    coordinates: [  0.000000000000000,  0.000000000000000,  0.826107352084212 ]
    mass: 121.760000
    reduced_to: 1
  - symbol: Sb # 50
    coordinates: [  0.083333333333333,  0.083333333333333,  0.826107352084212 ]
    mass: 121.760000
    reduced_to: 1
  - symbol: Sb # 51
    coordinates: [  0.166666666666667,  0.166666666666667,  0.826107352084212 ]
    mass: 121.760000
    reduced_to: 1
  - symbol: Sb # 52
    coordinates: [  0.250000000000000,  0.250000000000000,  0.826107352084212 ]
    mass: 121.760000
    reduced_to: 1
  - symbol: Sb # 53
    coordinates: [  0.333333333333333,  0.333333333333333,  0.826107352084212 ]
    mass: 121.760000
    reduced_to: 1
  - symbol: Sb # 54
    coordinates: [  0.416666666666667,  0.416666666666667,  0.826107352084212 ]
    mass: 121.760000
    reduced_to: 1
  - symbol: Sb # 55
    coordinates: [  0.500000000000000,  0.500000000000000,  0.826107352084212 ]
    mass: 121.760000
    reduced_to: 1
  - symbol: Sb # 56
    coordinates: [  0.583333333333333,  0.583333333333333,  0.826107352084212 ]
    mass: 121.760000
    reduced_to: 1
  - symbol: Sb # 57
    coordinates: [  0.666666666666667,  0.666666666666667,  0.826107352084212 ]
    mass: 121.760000
    reduced_to: 1
  - symbol: Sb # 58
    coordinates: [  0.750000000000000,  0.750000000000000,  0.826107352084212 ]
    mass: 121.760000
    reduced_to: 1
  - symbol: Sb # 59
    coordinates: [  0.833333333333333,  0.833333333333333,  0.826107352084212 ]
    mass: 121.760000
    reduced_to: 1
  - symbol: Sb # 60
    coordinates: [  0.916666666666667,  0.916666666666667,  0.826107352084212 ]
    mass: 121.760000
    reduced_to: 1
  - symbol: Sb # 61
    coordinates: [  0.875000000000000,  0.125000000000000,  0.826107352084212 ]
    mass: 121.760000
    reduced_to: 1
  - symbol: Sb # 62
    coordinates: [  0.958333333333333,  0.208333333333333,  0.826107352084212 ]
    mass: 121.760000
    reduced_to: 1
  - symbol: Sb # 63
    coordinates: [  0.041666666666667,  0.291666666666667,  0.826107352084212 ]
    mass: 121.760000
    reduced_to: 1
  - symbol: Sb # 64
    coordinates: [  0.125000000000000,  0.375000000000000,  0.826107352084212 ]
    mass: 121.760000
    reduced_to: 1
  - symbol: Sb # 65
    coordinates: [  0.208333333333333,  0.458333333333333,  0.826107352084212 ]
    mass: 121.760000
    reduced_to: 1
  - symbol: Sb # 66
    coordinates: [  0.291666666666667,  0.541666666666667,  0.826107352084212 ]
    mass: 121.760000
    reduced_to: 1
  - symbol: Sb # 67
    coordinates: [  0.375000000000000,  0.625000000000000,  0.826107352084212 ]
    mass: 121.760000
    reduced_to: 1
  - symbol: Sb # 68
    coordinates: [  0.458333333333333,  0.708333333333333,  0.826107352084212 ]
    mass: 121.760000
    reduced_to: 1
  - symbol: Sb # 69
    coordinates: [  0.541666666666667,  0.791666666666667,  0.826107352084212 ]
    mass: 121.760000
    reduced_to: 1
  - symbol: Sb # 70
    coordinates: [  0.625000000000000,  0.875000000000000,  0.826107352084212 ]
    mass: 121.760000
    reduced_to: 1
  - symbol: Sb # 71
    coordinates: [  0.708333333333333,  0.958333333333333,  0.826107352084212 ]
    mass: 121.760000
    reduced_to: 1
  - symbol: Sb # 72
    coordinates: [  0.791666666666667,  0.041666666666667,  0.826107352084212 ]
    mass: 121.760000
    reduced_to: 1
  - symbol: Sb # 73
    coordinates: [  0.750000000000000,  0.250000000000000,  0.826107352084212 ]
    mass: 121.760000
    reduced_to: 1
  - symbol: Sb # 74
    coordinates: [  0.833333333333333,  0.333333333333333,  0.826107352084212 ]
    mass: 121.760000
    reduced_to: 1
  - symbol: Sb # 75
    coordinates: [  0.916666666666667,  0.416666666666667,  0.826107352084212 ]
    mass: 121.760000
    reduced_to: 1
  - symbol: Sb # 76
    coordinates: [  0.000000000000000,  0.500000000000000,  0.826107352084212 ]
    mass: 121.760000
    reduced_to: 1
  - symbol: Sb # 77
    coordinates: [  0.083333333333333,  0.583333333333333,  0.826107352084212 ]
    mass: 121.760000
    reduced_to: 1
  - symbol: Sb # 78
    coordinates: [  0.166666666666667,  0.666666666666667,  0.826107352084212 ]
    mass: 121.760000
    reduced_to: 1
  - symbol: Sb # 79
    coordinates: [  0.250000000000000,  0.750000000000000,  0.826107352084212 ]
    mass: 121.760000
    reduced_to: 1
  - symbol: Sb # 80
    coordinates: [  0.333333333333333,  0.833333333333333,  0.826107352084212 ]
    mass: 121.760000
    reduced_to: 1
  - symbol: Sb # 81
    coordinates: [  0.416666666666667,  0.916666666666667,  0.826107352084212 ]
    mass: 121.760000
    reduced_to: 1
  - symbol: Sb # 82
    coordinates: [  0.500000000000000,  0.000000000000000,  0.826107352084212 ]
    mass: 121.760000
    reduced_to: 1
  - symbol: Sb # 83
    coordinates: [  0.583333333333333,  0.083333333333333,  0.826107352084212 ]
    mass: 121.760000
    reduced_to: 1
  - symbol: Sb # 84
    coordinates: [  0.666666666666667,  0.166666666666667,  0.826107352084212 ]
    mass: 121.760000
    reduced_to: 1
  - symbol: Sb # 85
    coordinates: [  0.625000000000000,  0.375000000000000,  0.826107352084212 ]
    mass: 121.760000
    reduced_to: 1
  - symbol: Sb # 86
    coordinates: [  0.708333333333333,  0.458333333333333,  0.826107352084212 ]
    mass: 121.760000
    reduced_to: 1
  - symbol: Sb # 87
    coordinates: [  0.791666666666667,  0.541666666666667,  0.826107352084212 ]
    mass: 121.760000
    reduced_to: 1
  - symbol: Sb # 88
    coordinates: [  0.875000000000000,  0.625000000000000,  0.826107352084212 ]
    mass: 121.760000
    reduced_to: 1
  - symbol: Sb # 89
    coordinates: [  0.958333333333333,  0.708333333333333,  0.826107352084212 ]
    mass: 121.760000
    reduced_to: 1
  - symbol: Sb # 90
    coordinates: [  0.041666666666667,  0.791666666666667,  0.826107352084212 ]
    mass: 121.760000
    reduced_to: 1
  - symbol: Sb # 91
    coordinates: [  0.125000000000000,  0.875000000000000,  0.826107352084212 ]
    mass: 121.760000
    reduced_to: 1
  - symbol: Sb # 92
    coordinates: [  0.208333333333333,  0.958333333333333,  0.826107352084212 ]
    mass: 121.760000
    reduced_to: 1
  - symbol: Sb # 93
    coordinates: [  0.291666666666667,  0.041666666666667,  0.826107352084212 ]
    mass: 121.760000
    reduced_to: 1
  - symbol: Sb # 94
    coordinates: [  0.375000000000000,  0.125000000000000,  0.826107352084212 ]
    mass: 121.760000
    reduced_to: 1
  - symbol: Sb # 95
    coordinates: [  0.458333333333333,  0.208333333333333,  0.826107352084212 ]
    mass: 121.760000
    reduced_to: 1
  - symbol: Sb # 96
    coordinates: [  0.541666666666667,  0.291666666666667,  0.826107352084212 ]
    mass: 121.760000
    reduced_to: 1
  - symbol: Sb # 97
    coordinates: [  0.000000000000000,  0.000000000000000,  0.173892647915788 ]
    mass: 121.760000
    reduced_to: 97
  - symbol: Sb # 98
    coordinates: [  0.083333333333333,  0.083333333333333,  0.173892647915788 ]
    mass: 121.760000
    reduced_to: 97
  - symbol: Sb # 99
    coordinates: [  0.166666666666667,  0.166666666666667,  0.173892647915788 ]
    mass: 121.760000
    reduced_to: 97
  - symbol: Sb # 100
    coordinates: [  0.250000000000000,  0.250000000000000,  0.173892647915788 ]
    mass: 121.760000
    reduced_to: 97
  - symbol: Sb # 101
    coordinates: [  0.333333333333333,  0.333333333333333,  0.173892647915788 ]
    mass: 121.760000
    reduced_to: 97
  - symbol: Sb # 102
    coordinates: [  0.416666666666667,  0.416666666666667,  0.173892647915788 ]
    mass: 121.760000
    reduced_to: 97
  - symbol: Sb # 103
    coordinates: [  0.500000000000000,  0.500000000000000,  0.173892647915788 ]
    mass: 121.760000
    reduced_to: 97
  - symbol: Sb # 104
    coordinates: [  0.583333333333333,  0.583333333333333,  0.173892647915788 ]
    mass: 121.760000
    reduced_to: 97
  - symbol: Sb # 105
    coordinates: [  0.666666666666667,  0.666666666666667,  0.173892647915788 ]
    mass: 121.760000
    reduced_to: 97
  - symbol: Sb # 106
    coordinates: [  0.750000000000000,  0.750000000000000,  0.173892647915788 ]
    mass: 121.760000
    reduced_to: 97
  - symbol: Sb # 107
    coordinates: [  0.833333333333333,  0.833333333333333,  0.173892647915788 ]
    mass: 121.760000
    reduced_to: 97
  - symbol: Sb # 108
    coordinates: [  0.916666666666667,  0.916666666666667,  0.173892647915788 ]
    mass: 121.760000
    reduced_to: 97
  - symbol: Sb # 109
    coordinates: [  0.875000000000000,  0.125000000000000,  0.173892647915788 ]
    mass: 121.760000
    reduced_to: 97
  - symbol: Sb # 110
    coordinates: [  0.958333333333333,  0.208333333333333,  0.173892647915788 ]
    mass: 121.760000
    reduced_to: 97
  - symbol: Sb # 111
    coordinates: [  0.041666666666667,  0.291666666666667,  0.173892647915788 ]
    mass: 121.760000
    reduced_to: 97
  - symbol: Sb # 112
    coordinates: [  0.125000000000000,  0.375000000000000,  0.173892647915788 ]
    mass: 121.760000
    reduced_to: 97
  - symbol: Sb # 113
    coordinates: [  0.208333333333333,  0.458333333333333,  0.173892647915788 ]
    mass: 121.760000
    reduced_to: 97
  - symbol: Sb # 114
    coordinates: [  0.291666666666667,  0.541666666666667,  0.173892647915788 ]
    mass: 121.760000
    reduced_to: 97
  - symbol: Sb # 115
    coordinates: [  0.375000000000000,  0.625000000000000,  0.173892647915788 ]
    mass: 121.760000
    reduced_to: 97
  - symbol: Sb # 116
    coordinates: [  0.458333333333333,  0.708333333333333,  0.173892647915788 ]
    mass: 121.760000
    reduced_to: 97
  - symbol: Sb # 117
    coordinates: [  0.541666666666667,  0.791666666666667,  0.173892647915788 ]
    mass: 121.760000
    reduced_to: 97
  - symbol: Sb # 118
    coordinates: [  0.625000000000000,  0.875000000000000,  0.173892647915788 ]
    mass: 121.760000
    reduced_to: 97
  - symbol: Sb # 119
    coordinates: [  0.708333333333333,  0.958333333333333,  0.173892647915788 ]
    mass: 121.760000
    reduced_to: 97
  - symbol: Sb # 120
    coordinates: [  0.791666666666667,  0.041666666666667,  0.173892647915788 ]
    mass: 121.760000
    reduced_to: 97
  - symbol: Sb # 121
    coordinates: [  0.750000000000000,  0.250000000000000,  0.173892647915788 ]
    mass: 121.760000
    reduced_to: 97
  - symbol: Sb # 122
    coordinates: [  0.833333333333333,  0.333333333333333,  0.173892647915788 ]
    mass: 121.760000
    reduced_to: 97
  - symbol: Sb # 123
    coordinates: [  0.916666666666667,  0.416666666666667,  0.173892647915788 ]
    mass: 121.760000
    reduced_to: 97
  - symbol: Sb # 124
    coordinates: [  0.000000000000000,  0.500000000000000,  0.173892647915788 ]
    mass: 121.760000
    reduced_to: 97
  - symbol: Sb # 125
    coordinates: [  0.083333333333333,  0.583333333333333,  0.173892647915788 ]
    mass: 121.760000
    reduced_to: 97
  - symbol: Sb # 126
    coordinates: [  0.166666666666667,  0.666666666666667,  0.173892647915788 ]
    mass: 121.760000
    reduced_to: 97
  - symbol: Sb # 127
    coordinates: [  0.250000000000000,  0.750000000000000,  0.173892647915788 ]
    mass: 121.760000
    reduced_to: 97
  - symbol: Sb # 128
    coordinates: [  0.333333333333333,  0.833333333333333,  0.173892647915788 ]
    mass: 121.760000
    reduced_to: 97
  - symbol: Sb # 129
    coordinates: [  0.416666666666667,  0.916666666666667,  0.173892647915788 ]
    mass: 121.760000
    reduced_to: 97
  - symbol: Sb # 130
    coordinates: [  0.500000000000000,  0.000000000000000,  0.173892647915788 ]
    mass: 121.760000
    reduced_to: 97
  - symbol: Sb # 131
    coordinates: [  0.583333333333333,  0.083333333333333,  0.173892647915788 ]
    mass: 121.760000
    reduced_to: 97
  - symbol: Sb # 132
    coordinates: [  0.666666666666667,  0.166666666666667,  0.173892647915788 ]
    mass: 121.760000
    reduced_to: 97
  - symbol: Sb # 133
    coordinates: [  0.625000000000000,  0.375000000000000,  0.173892647915788 ]
    mass: 121.760000
    reduced_to: 97
  - symbol: Sb # 134
    coordinates: [  0.708333333333333,  0.458333333333333,  0.173892647915788 ]
    mass: 121.760000
    reduced_to: 97
  - symbol: Sb # 135
    coordinates: [  0.791666666666667,  0.541666666666667,  0.173892647915788 ]
    mass: 121.760000
    reduced_to: 97
  - symbol: Sb # 136
    coordinates: [  0.875000000000000,  0.625000000000000,  0.173892647915788 ]
    mass: 121.760000
    reduced_to: 97
  - symbol: Sb # 137
    coordinates: [  0.958333333333333,  0.708333333333333,  0.173892647915788 ]
    mass: 121.760000
    reduced_to: 97
  - symbol: Sb # 138
    coordinates: [  0.041666666666667,  0.791666666666667,  0.173892647915788 ]
    mass: 121.760000
    reduced_to: 97
  - symbol: Sb # 139
    coordinates: [  0.125000000000000,  0.875000000000000,  0.173892647915788 ]
    mass: 121.760000
    reduced_to: 97
  - symbol: Sb # 140
    coordinates: [  0.208333333333333,  0.958333333333333,  0.173892647915788 ]
    mass: 121.760000
    reduced_to: 97
  - symbol: Sb # 141
    coordinates: [  0.291666666666667,  0.041666666666667,  0.173892647915788 ]
    mass: 121.760000
    reduced_to: 97
  - symbol: Sb # 142
    coordinates: [  0.375000000000000,  0.125000000000000,  0.173892647915788 ]
    mass: 121.760000
    reduced_to: 97
  - symbol: Sb # 143
    coordinates: [  0.458333333333333,  0.208333333333333,  0.173892647915788 ]
    mass: 121.760000
    reduced_to: 97
  - symbol: Sb # 144
    coordinates: [  0.541666666666667,  0.291666666666667,  0.173892647915788 ]
    mass: 121.760000
    reduced_to: 97
  - symbol: Sb # 145
    coordinates: [  0.000000000000000,  0.000000000000000,  0.673892647915788 ]
    mass: 121.760000
    reduced_to: 97
  - symbol: Sb # 146
    coordinates: [  0.083333333333333,  0.083333333333333,  0.673892647915788 ]
    mass: 121.760000
    reduced_to: 97
  - symbol: Sb # 147
    coordinates: [  0.166666666666667,  0.166666666666667,  0.673892647915788 ]
    mass: 121.760000
    reduced_to: 97
  - symbol: Sb # 148
    coordinates: [  0.250000000000000,  0.250000000000000,  0.673892647915788 ]
    mass: 121.760000
    reduced_to: 97
  - symbol: Sb # 149
    coordinates: [  0.333333333333333,  0.333333333333333,  0.673892647915788 ]
    mass: 121.760000
    reduced_to: 97
  - symbol: Sb # 150
    coordinates: [  0.416666666666667,  0.416666666666667,  0.673892647915788 ]
    mass: 121.760000
    reduced_to: 97
  - symbol: Sb # 151
    coordinates: [  0.500000000000000,  0.500000000000000,  0.673892647915788 ]
    mass: 121.760000
    reduced_to: 97
  - symbol: Sb # 152
    coordinates: [  0.583333333333333,  0.583333333333333,  0.673892647915788 ]
    mass: 121.760000
    reduced_to: 97
  - symbol: Sb # 153
    coordinates: [  0.666666666666667,  0.666666666666667,  0.673892647915788 ]
    mass: 121.760000
    reduced_to: 97
  - symbol: Sb # 154
    coordinates: [  0.750000000000000,  0.750000000000000,  0.673892647915788 ]
    mass: 121.760000
    reduced_to: 97
  - symbol: Sb # 155
    coordinates: [  0.833333333333333,  0.833333333333333,  0.673892647915788 ]
    mass: 121.760000
    reduced_to: 97
  - symbol: Sb # 156
    coordinates: [  0.916666666666667,  0.916666666666667,  0.673892647915788 ]
    mass: 121.760000
    reduced_to: 97
  - symbol: Sb # 157
    coordinates: [  0.875000000000000,  0.125000000000000,  0.673892647915788 ]
    mass: 121.760000
    reduced_to: 97
  - symbol: Sb # 158
    coordinates: [  0.958333333333333,  0.208333333333333,  0.673892647915788 ]
    mass: 121.760000
    reduced_to: 97
  - symbol: Sb # 159
    coordinates: [  0.041666666666667,  0.291666666666667,  0.673892647915788 ]
    mass: 121.760000
    reduced_to: 97
  - symbol: Sb # 160
    coordinates: [  0.125000000000000,  0.375000000000000,  0.673892647915788 ]
    mass: 121.760000
    reduced_to: 97
  - symbol: Sb # 161
    coordinates: [  0.208333333333333,  0.458333333333333,  0.673892647915788 ]
    mass: 121.760000
    reduced_to: 97
  - symbol: Sb # 162
    coordinates: [  0.291666666666667,  0.541666666666667,  0.673892647915788 ]
    mass: 121.760000
    reduced_to: 97
  - symbol: Sb # 163
    coordinates: [  0.375000000000000,  0.625000000000000,  0.673892647915788 ]
    mass: 121.760000
    reduced_to: 97
  - symbol: Sb # 164
    coordinates: [  0.458333333333333,  0.708333333333333,  0.673892647915788 ]
    mass: 121.760000
    reduced_to: 97
  - symbol: Sb # 165
    coordinates: [  0.541666666666667,  0.791666666666667,  0.673892647915788 ]
    mass: 121.760000
    reduced_to: 97
  - symbol: Sb # 166
    coordinates: [  0.625000000000000,  0.875000000000000,  0.673892647915788 ]
    mass: 121.760000
    reduced_to: 97
  - symbol: Sb # 167
    coordinates: [  0.708333333333333,  0.958333333333333,  0.673892647915788 ]
    mass: 121.760000
    reduced_to: 97
  - symbol: Sb # 168
    coordinates: [  0.791666666666667,  0.041666666666667,  0.673892647915788 ]
    mass: 121.760000
    reduced_to: 97
  - symbol: Sb # 169
    coordinates: [  0.750000000000000,  0.250000000000000,  0.673892647915788 ]
    mass: 121.760000
    reduced_to: 97
  - symbol: Sb # 170
    coordinates: [  0.833333333333333,  0.333333333333333,  0.673892647915788 ]
    mass: 121.760000
    reduced_to: 97
  - symbol: Sb # 171
    coordinates: [  0.916666666666667,  0.416666666666667,  0.673892647915788 ]
    mass: 121.760000
    reduced_to: 97
  - symbol: Sb # 172
    coordinates: [  0.000000000000000,  0.500000000000000,  0.673892647915788 ]
    mass: 121.760000
    reduced_to: 97
  - symbol: Sb # 173
    coordinates: [  0.083333333333333,  0.583333333333333,  0.673892647915788 ]
    mass: 121.760000
    reduced_to: 97
  - symbol: Sb # 174
    coordinates: [  0.166666666666667,  0.666666666666667,  0.673892647915788 ]
    mass: 121.760000
    reduced_to: 97
  - symbol: Sb # 175
    coordinates: [  0.250000000000000,  0.750000000000000,  0.673892647915788 ]
    mass: 121.760000
    reduced_to: 97
  - symbol: Sb # 176
    coordinates: [  0.333333333333333,  0.833333333333333,  0.673892647915788 ]
    mass: 121.760000
    reduced_to: 97
  - symbol: Sb # 177
    coordinates: [  0.416666666666667,  0.916666666666667,  0.673892647915788 ]
    mass: 121.760000
    reduced_to: 97
  - symbol: Sb # 178
    coordinates: [  0.500000000000000,  0.000000000000000,  0.673892647915788 ]
    mass: 121.760000
    reduced_to: 97
  - symbol: Sb # 179
    coordinates: [  0.583333333333333,  0.083333333333333,  0.673892647915788 ]
    mass: 121.760000
    reduced_to: 97
  - symbol: Sb # 180
    coordinates: [  0.666666666666667,  0.166666666666667,  0.673892647915788 ]
    mass: 121.760000
    reduced_to: 97
  - symbol: Sb # 181
    coordinates: [  0.625000000000000,  0.375000000000000,  0.673892647915788 ]
    mass: 121.760000
    reduced_to: 97
  - symbol: Sb # 182
    coordinates: [  0.708333333333333,  0.458333333333333,  0.673892647915788 ]
    mass: 121.760000
    reduced_to: 97
  - symbol: Sb # 183
    coordinates: [  0.791666666666667,  0.541666666666667,  0.673892647915788 ]
    mass: 121.760000
    reduced_to: 97
  - symbol: Sb # 184
    coordinates: [  0.875000000000000,  0.625000000000000,  0.673892647915788 ]
    mass: 121.760000
    reduced_to: 97
  - symbol: Sb # 185
    coordinates: [  0.958333333333333,  0.708333333333333,  0.673892647915788 ]
    mass: 121.760000
    reduced_to: 97
  - symbol: Sb # 186
    coordinates: [  0.041666666666667,  0.791666666666667,  0.673892647915788 ]
    mass: 121.760000
    reduced_to: 97
  - symbol: Sb # 187