phonopy:
  version: "2.21.0"
  frequency_unit_conversion_factor: 15.633302
  symmetry_tolerance: 1.00000e-04

space_group:
  type: "P2_13"
  number: 198
  Hall_symbol: "P 2ac 2ab 3"

primitive_matrix:
- [  1.000000000000000,  0.000000000000000,  0.000000000000000 ]
- [  0.000000000000000,  1.000000000000000,  0.000000000000000 ]
- [ -0.000000000000000, -0.000000000000000,  1.000000000000000 ]

supercell_matrix:
- [   2,   0,   0 ]
- [   0,   2,   0 ]
- [   0,   0,   2 ]

primitive_cell:
  lattice:
  - [    11.293282549852169,     0.000000000000000,     0.000000000000001 ] # a
  - [    -0.000000000000001,    11.293282549852169,     0.000000000000001 ] # b
  - [     0.000000000000000,     0.000000000000000,    11.293282549852169 ] # c
  points:
  - symbol: Ga # 1
    coordinates: [  0.009283374655368,  0.009283374655368,  0.009283374655368 ]
    mass: 69.723000
  - symbol: Ga # 2
    coordinates: [  0.490716625344632,  0.990716625344633,  0.509283374655368 ]
    mass: 69.723000
  - symbol: Ga # 3
    coordinates: [  0.509283374655368,  0.490716625344632,  0.990716625344633 ]
    mass: 69.723000
  - symbol: Ga # 4
    coordinates: [  0.990716625344633,  0.509283374655368,  0.490716625344632 ]
    mass: 69.723000
  - symbol: Ag # 5
    coordinates: [  0.323466467605892,  0.568818816911990,  0.634954500620192 ]
    mass: 107.868200
  - symbol: Ag # 6
    coordinates: [  0.634954500620192,  0.323466467605892,  0.568818816911990 ]
    mass: 107.868200
  - symbol: Ag # 7
    coordinates: [  0.568818816911990,  0.634954500620192,  0.323466467605892 ]
    mass: 107.868200
  - symbol: Ag # 8
    coordinates: [  0.931181183088010,  0.365045499379808,  0.823466467605892 ]
    mass: 107.868200
  - symbol: Ag # 9
    coordinates: [  0.134954500620192,  0.176533532394108,  0.431181183088010 ]
    mass: 107.868200
  - symbol: Ag # 10
    coordinates: [  0.431181183088010,  0.134954500620192,  0.176533532394108 ]
    mass: 107.868200
  - symbol: Ag # 11
    coordinates: [  0.865045499379809,  0.676533532394108,  0.068818816911990 ]
    mass: 107.868200
  - symbol: Ag # 12
    coordinates: [  0.365045499379808,  0.823466467605892,  0.931181183088010 ]
    mass: 107.868200
  - symbol: Ag # 13
    coordinates: [  0.068818816911990,  0.865045499379809,  0.676533532394108 ]
    mass: 107.868200
  - symbol: Ag # 14
    coordinates: [  0.823466467605892,  0.931181183088010,  0.365045499379808 ]
    mass: 107.868200
  - symbol: Ag # 15
    coordinates: [  0.676533532394108,  0.068818816911990,  0.865045499379809 ]
    mass: 107.868200
  - symbol: Ag # 16
    coordinates: [  0.176533532394108,  0.431181183088010,  0.134954500620192 ]
    mass: 107.868200
  - symbol: Ag # 17
    coordinates: [  0.725563019619979,  0.730889284414552,  0.530145226746491 ]
    mass: 107.868200
  - symbol: Ag # 18
    coordinates: [  0.530145226746491,  0.725563019619979,  0.730889284414552 ]
    mass: 107.868200
  - symbol: Ag # 19
    coordinates: [  0.730889284414552,  0.530145226746491,  0.725563019619979 ]
    mass: 107.868200
  - symbol: Ag # 20
    coordinates: [  0.769110715585448,  0.469854773253509,  0.225563019619979 ]
    mass: 107.868200
  - symbol: Ag # 21
    coordinates: [  0.030145226746491,  0.774436980380021,  0.269110715585448 ]
    mass: 107.868200
  - symbol: Ag # 22
    coordinates: [  0.269110715585448,  0.030145226746491,  0.774436980380021 ]
    mass: 107.868200
  - symbol: Ag # 23
    coordinates: [  0.969854773253509,  0.274436980380021,  0.230889284414552 ]
    mass: 107.868200
  - symbol: Ag # 24
    coordinates: [  0.469854773253509,  0.225563019619979,  0.769110715585448 ]
    mass: 107.868200
  - symbol: Ag # 25
    coordinates: [  0.230889284414552,  0.969854773253509,  0.274436980380021 ]
    mass: 107.868200
  - symbol: Ag # 26
    coordinates: [  0.225563019619979,  0.769110715585448,  0.469854773253509 ]
    mass: 107.868200
  - symbol: Ag # 27
    coordinates: [  0.274436980380021,  0.230889284414552,  0.969854773253509 ]
    mass: 107.868200
  - symbol: Ag # 28
    coordinates: [  0.774436980380021,  0.269110715585448,  0.030145226746491 ]
    mass: 107.868200
  - symbol: Ag # 29
    coordinates: [  0.328461421050822,  0.540170039455968,  0.368843092136447 ]
    mass: 107.868200
  - symbol: Ag # 30
    coordinates: [  0.368843092136447,  0.328461421050822,  0.540170039455968 ]
    mass: 107.868200
  - symbol: Ag # 31
    coordinates: [  0.540170039455968,  0.368843092136447,  0.328461421050822 ]
    mass: 107.868200
  - symbol: Ag # 32
    coordinates: [  0.959829960544033,  0.631156907863553,  0.828461421050829 ]
    mass: 107.868200
  - symbol: Ag # 33
    coordinates: [  0.868843092136447,  0.171538578949178,  0.459829960544033 ]
    mass: 107.868200
  - symbol: Ag # 34
    coordinates: [  0.459829960544033,  0.868843092136447,  0.171538578949178 ]
    mass: 107.868200
  - symbol: Ag # 35
    coordinates: [  0.131156907863553,  0.671538578949171,  0.040170039455968 ]
    mass: 107.868200
  - symbol: Ag # 36
    coordinates: [  0.631156907863553,  0.828461421050829,  0.959829960544033 ]
    mass: 107.868200
  - symbol: Ag # 37
    coordinates: [  0.040170039455968,  0.131156907863553,  0.671538578949171 ]
    mass: 107.868200
  - symbol: Ag # 38
    coordinates: [  0.828461421050829,  0.959829960544033,  0.631156907863553 ]
    mass: 107.868200
  - symbol: Ag # 39
    coordinates: [  0.671538578949171,  0.040170039455968,  0.131156907863553 ]
    mass: 107.868200
  - symbol: Ag # 40
    coordinates: [  0.171538578949178,  0.459829960544033,  0.868843092136447 ]
    mass: 107.868200
  - symbol: Se # 41
    coordinates: [  0.522538508844602,  0.522538508844602,  0.522538508844602 ]
    mass: 78.960000
  - symbol: Se # 42
    coordinates: [  0.977461491155398,  0.477461491155398,  0.022538508844602 ]
    mass: 78.960000
  - symbol: Se # 43
    coordinates: [  0.022538508844602,  0.977461491155398,  0.477461491155398 ]
    mass: 78.960000
  - symbol: Se # 44
    coordinates: [  0.477461491155398,  0.022538508844602,  0.977461491155398 ]
    mass: 78.960000
  - symbol: Se # 45
    coordinates: [  0.132071295006064,  0.132071295006064,  0.132071295006064 ]
    mass: 78.960000
  - symbol: Se # 46
    coordinates: [  0.367928704993936,  0.867928704993936,  0.632071295006064 ]
    mass: 78.960000
  - symbol: Se # 47
    coordinates: [  0.632071295006064,  0.367928704993936,  0.867928704993936 ]
    mass: 78.960000
  - symbol: Se # 48
    coordinates: [  0.867928704993936,  0.632071295006064,  0.367928704993936 ]
    mass: 78.960000
  - symbol: Se # 49
    coordinates: [  0.761825607199225,  0.761825607199225,  0.761825607199225 ]
    mass: 78.960000
  - symbol: Se # 50
    coordinates: [  0.738174392800775,  0.238174392800775,  0.261825607199225 ]
    mass: 78.960000
  - symbol: Se # 51
    coordinates: [  0.261825607199225,  0.738174392800775,  0.238174392800775 ]
    mass: 78.960000
  - symbol: Se # 52
    coordinates: [  0.238174392800775,  0.261825607199225,  0.738174392800775 ]
    mass: 78.960000
  - symbol: Se # 53
    coordinates: [  0.899791734577141,  0.127627729059535,  0.866088790374890 ]
    mass: 78.960000
  - symbol: Se # 54
    coordinates: [  0.866088790374890,  0.899791734577141,  0.127627729059535 ]
    mass: 78.960000
  - symbol: Se # 55
    coordinates: [  0.127627729059535,  0.866088790374890,  0.899791734577141 ]
    mass: 78.960000
  - symbol: Se # 56
    coordinates: [  0.372372270940465,  0.133911209625111,  0.399791734577141 ]
    mass: 78.960000
  - symbol: Se # 57
    coordinates: [  0.366088790374889,  0.600208265422859,  0.872372270940465 ]
    mass: 78.960000
  - symbol: Se # 58
    coordinates: [  0.872372270940465,  0.366088790374889,  0.600208265422859 ]
    mass: 78.960000
  - symbol: Se # 59
    coordinates: [  0.633911209625111,  0.100208265422859,  0.627627729059535 ]
    mass: 78.960000
  - symbol: Se # 60
    coordinates: [  0.133911209625111,  0.399791734577141,  0.372372270940465 ]
    mass: 78.960000
  - symbol: Se # 61
    coordinates: [  0.627627729059535,  0.633911209625111,  0.100208265422859 ]
    mass: 78.960000
  - symbol: Se # 62
    coordinates: [  0.399791734577141,  0.372372270940465,  0.133911209625111 ]
    mass: 78.960000
  - symbol: Se # 63
    coordinates: [  0.100208265422859,  0.627627729059535,  0.633911209625111 ]
    mass: 78.960000
  - symbol: Se # 64
    coordinates: [  0.600208265422859,  0.872372270940465,  0.366088790374889 ]
    mass: 78.960000
  reciprocal_lattice: # without 2pi
  - [     0.088548214001171,     0.000000000000000,     0.000000000000000 ] # a*
  - [     0.000000000000000,     0.088548214001171,     0.000000000000000 ] # b*
  - [    -0.000000000000000,    -0.000000000000000,     0.088548214001171 ] # c*

unit_cell:
  lattice:
  - [    11.293282549852171,    -0.000000000000000,     0.000000000000001 ] # a
  - [    -0.000000000000001,    11.293282549852171,     0.000000000000001 ] # b
  - [     0.000000000000000,     0.000000000000000,    11.293282549852171 ] # c
  points:
  - symbol: Ga # 1
    coordinates: [  0.009283374655368,  0.009283374655368,  0.009283374655368 ]
    mass: 69.723000
    reduced_to: 1
  - symbol: Ga # 2
    coordinates: [  0.490716625344632,  0.990716625344632,  0.509283374655368 ]
    mass: 69.723000
    reduced_to: 2
  - symbol: Ga # 3
    coordinates: [  0.509283374655368,  0.490716625344632,  0.990716625344632 ]
    mass: 69.723000
    reduced_to: 3
  - symbol: Ga # 4
    coordinates: [  0.990716625344632,  0.509283374655368,  0.490716625344632 ]
    mass: 69.723000
    reduced_to: 4
  - symbol: Ag # 5
    coordinates: [  0.323466467605892,  0.568818816911990,  0.634954500620191 ]
    mass: 107.868200
    reduced_to: 5
  - symbol: Ag # 6
    coordinates: [  0.634954500620191,  0.323466467605892,  0.568818816911990 ]
    mass: 107.868200
    reduced_to: 6
  - symbol: Ag # 7
    coordinates: [  0.568818816911990,  0.634954500620191,  0.323466467605892 ]
    mass: 107.868200
    reduced_to: 7
  - symbol: Ag # 8
    coordinates: [  0.931181183088010,  0.365045499379808,  0.823466467605892 ]
    mass: 107.868200
    reduced_to: 8
  - symbol: Ag # 9
    coordinates: [  0.134954500620192,  0.176533532394108,  0.431181183088010 ]
    mass: 107.868200
    reduced_to: 9
  - symbol: Ag # 10
    coordinates: [  0.431181183088010,  0.134954500620192,  0.176533532394108 ]
    mass: 107.868200
    reduced_to: 10
  - symbol: Ag # 11
    coordinates: [  0.865045499379809,  0.676533532394108,  0.068818816911990 ]
    mass: 107.868200
    reduced_to: 11
  - symbol: Ag # 12
    coordinates: [  0.365045499379808,  0.823466467605892,  0.931181183088010 ]
    mass: 107.868200
    reduced_to: 12
  - symbol: Ag # 13
    coordinates: [  0.068818816911990,  0.865045499379809,  0.676533532394108 ]
    mass: 107.868200
    reduced_to: 13
  - symbol: Ag # 14
    coordinates: [  0.823466467605892,  0.931181183088010,  0.365045499379808 ]
    mass: 107.868200
    reduced_to: 14
  - symbol: Ag # 15
    coordinates: [  0.676533532394108,  0.068818816911990,  0.865045499379809 ]
    mass: 107.868200
    reduced_to: 15
  - symbol: Ag # 16
    coordinates: [  0.176533532394108,  0.431181183088010,  0.134954500620192 ]
    mass: 107.868200
    reduced_to: 16
  - symbol: Ag # 17
    coordinates: [  0.725563019619979,  0.730889284414552,  0.530145226746491 ]
    mass: 107.868200
    reduced_to: 17
  - symbol: Ag # 18
    coordinates: [  0.530145226746491,  0.725563019619979,  0.730889284414552 ]
    mass: 107.868200
    reduced_to: 18
  - symbol: Ag # 19
    coordinates: [  0.730889284414552,  0.530145226746491,  0.725563019619979 ]
    mass: 107.868200
    reduced_to: 19
  - symbol: Ag # 20
    coordinates: [  0.769110715585448,  0.469854773253509,  0.225563019619979 ]
    mass: 107.868200
    reduced_to: 20
  - symbol: Ag # 21
    coordinates: [  0.030145226746491,  0.774436980380021,  0.269110715585448 ]
    mass: 107.868200
    reduced_to: 21
  - symbol: Ag # 22
    coordinates: [  0.269110715585448,  0.030145226746491,  0.774436980380021 ]
    mass: 107.868200
    reduced_to: 22
  - symbol: Ag # 23
    coordinates: [  0.969854773253509,  0.274436980380021,  0.230889284414552 ]
    mass: 107.868200
    reduced_to: 23
  - symbol: Ag # 24
    coordinates: [  0.469854773253509,  0.225563019619979,  0.769110715585448 ]
    mass: 107.868200
    reduced_to: 24
  - symbol: Ag # 25
    coordinates: [  0.230889284414552,  0.969854773253509,  0.274436980380021 ]
    mass: 107.868200
    reduced_to: 25
  - symbol: Ag # 26
    coordinates: [  0.225563019619979,  0.769110715585448,  0.469854773253509 ]
    mass: 107.868200
    reduced_to: 26
  - symbol: Ag # 27
    coordinates: [  0.274436980380021,  0.230889284414552,  0.969854773253509 ]
    mass: 107.868200
    reduced_to: 27
  - symbol: Ag # 28
    coordinates: [  0.774436980380021,  0.269110715585448,  0.030145226746491 ]
    mass: 107.868200
    reduced_to: 28
  - symbol: Ag # 29
    coordinates: [  0.328461421050822,  0.540170039455968,  0.368843092136447 ]
    mass: 107.868200
    reduced_to: 29
  - symbol: Ag # 30
    coordinates: [  0.368843092136447,  0.328461421050822,  0.540170039455968 ]
    mass: 107.868200
    reduced_to: 30
  - symbol: Ag # 31
    coordinates: [  0.540170039455968,  0.368843092136447,  0.328461421050822 ]
    mass: 107.868200
    reduced_to: 31
  - symbol: Ag # 32
    coordinates: [  0.959829960544032,  0.631156907863553,  0.828461421050829 ]
    mass: 107.868200
    reduced_to: 32
  - symbol: Ag # 33
    coordinates: [  0.868843092136447,  0.171538578949178,  0.459829960544033 ]
    mass: 107.868200
    reduced_to: 33
  - symbol: Ag # 34
    coordinates: [  0.459829960544033,  0.868843092136447,  0.171538578949178 ]
    mass: 107.868200
    reduced_to: 34
  - symbol: Ag # 35
    coordinates: [  0.131156907863553,  0.671538578949171,  0.040170039455967 ]
    mass: 107.868200
    reduced_to: 35
  - symbol: Ag # 36
    coordinates: [  0.631156907863553,  0.828461421050829,  0.959829960544032 ]
    mass: 107.868200
    reduced_to: 36
  - symbol: Ag # 37
    coordinates: [  0.040170039455967,  0.131156907863553,  0.671538578949171 ]
    mass: 107.868200
    reduced_to: 37
  - symbol: Ag # 38
    coordinates: [  0.828461421050829,  0.959829960544032,  0.631156907863553 ]
    mass: 107.868200
    reduced_to: 38
  - symbol: Ag # 39
    coordinates: [  0.671538578949171,  0.040170039455967,  0.131156907863553 ]
    mass: 107.868200
    reduced_to: 39
  - symbol: Ag # 40
    coordinates: [  0.171538578949178,  0.459829960544033,  0.868843092136447 ]
    mass: 107.868200
    reduced_to: 40
  - symbol: Se # 41
    coordinates: [  0.522538508844602,  0.522538508844602,  0.522538508844602 ]
    mass: 78.960000
    reduced_to: 41
  - symbol: Se # 42
    coordinates: [  0.977461491155398,  0.477461491155398,  0.022538508844602 ]
    mass: 78.960000
    reduced_to: 42
  - symbol: Se # 43
    coordinates: [  0.022538508844602,  0.977461491155398,  0.477461491155398 ]
    mass: 78.960000
    reduced_to: 43
  - symbol: Se # 44
    coordinates: [  0.477461491155398,  0.022538508844602,  0.977461491155398 ]
    mass: 78.960000
    reduced_to: 44
  - symbol: Se # 45
    coordinates: [  0.132071295006064,  0.132071295006064,  0.132071295006064 ]
    mass: 78.960000
    reduced_to: 45
  - symbol: Se # 46
    coordinates: [  0.367928704993936,  0.867928704993936,  0.632071295006064 ]
    mass: 78.960000
    reduced_to: 46
  - symbol: Se # 47
    coordinates: [  0.632071295006064,  0.367928704993936,  0.867928704993936 ]
    mass: 78.960000
    reduced_to: 47
  - symbol: Se # 48
    coordinates: [  0.867928704993936,  0.632071295006064,  0.367928704993936 ]
    mass: 78.960000
    reduced_to: 48
  - symbol: Se # 49
    coordinates: [  0.761825607199225,  0.761825607199225,  0.761825607199225 ]
    mass: 78.960000
    reduced_to: 49
  - symbol: Se # 50
    coordinates: [  0.738174392800775,  0.238174392800775,  0.261825607199225 ]
    mass: 78.960000
    reduced_to: 50
  - symbol: Se # 51
    coordinates: [  0.261825607199225,  0.738174392800775,  0.238174392800775 ]
    mass: 78.960000
    reduced_to: 51
  - symbol: Se # 52
    coordinates: [  0.238174392800775,  0.261825607199225,  0.738174392800775 ]
    mass: 78.960000
    reduced_to: 52
  - symbol: Se # 53
    coordinates: [  0.899791734577141,  0.127627729059535,  0.866088790374889 ]
    mass: 78.960000
    reduced_to: 53
  - symbol: Se # 54
    coordinates: [  0.866088790374889,  0.899791734577141,  0.127627729059535 ]
    mass: 78.960000
    reduced_to: 54
  - symbol: Se # 55
    coordinates: [  0.127627729059535,  0.866088790374889,  0.899791734577141 ]
    mass: 78.960000
    reduced_to: 55
  - symbol: Se # 56
    coordinates: [  0.372372270940465,  0.133911209625111,  0.399791734577141 ]
    mass: 78.960000
    reduced_to: 56
  - symbol: Se # 57
    coordinates: [  0.366088790374889,  0.600208265422859,  0.872372270940465 ]
    mass: 78.960000
    reduced_to: 57
  - symbol: Se # 58
    coordinates: [  0.872372270940465,  0.366088790374889,  0.600208265422859 ]
    mass: 78.960000
    reduced_to: 58
  - symbol: Se # 59
    coordinates: [  0.633911209625111,  0.100208265422859,  0.627627729059535 ]
    mass: 78.960000
    reduced_to: 59
  - symbol: Se # 60
    coordinates: [  0.133911209625111,  0.399791734577141,  0.372372270940465 ]
    mass: 78.960000
    reduced_to: 60
  - symbol: Se # 61
    coordinates: [  0.627627729059535,  0.633911209625111,  0.100208265422859 ]
    mass: 78.960000
    reduced_to: 61
  - symbol: Se # 62
    coordinates: [  0.399791734577141,  0.372372270940465,  0.133911209625111 ]
    mass: 78.960000
    reduced_to: 62
  - symbol: Se # 63
    coordinates: [  0.100208265422859,  0.627627729059535,  0.633911209625111 ]
    mass: 78.960000
    reduced_to: 63
  - symbol: Se # 64
    coordinates: [  0.600208265422859,  0.872372270940465,  0.366088790374889 ]
    mass: 78.960000
    reduced_to: 64

supercell:
  lattice:
  - [    22.586565099704341,     0.000000000000000,     0.000000000000001 ] # a
  - [    -0.000000000000001,    22.586565099704341,     0.000000000000001 ] # b
  - [     0.000000000000000,     0.000000000000000,    22.586565099704341 ] # c
  points:
  - symbol: Ga # 1
    coordinates: [  0.004641687327684,  0.004641687327684,  0.004641687327684 ]
    mass: 69.723000
    reduced_to: 1
  - symbol: Ga # 2
    coordinates: [  0.504641687327684,  0.004641687327684,  0.004641687327684 ]
    mass: 69.723000
    reduced_to: 1
  - symbol: Ga # 3
    coordinates: [  0.004641687327684,  0.504641687327684,  0.004641687327684 ]
    mass: 69.723000
    reduced_to: 1
  - symbol: Ga # 4
    coordinates: [  0.504641687327684,  0.504641687327684,  0.004641687327684 ]
    mass: 69.723000
    reduced_to: 1
  - symbol: Ga # 5
    coordinates: [  0.004641687327684,  0.004641687327684,  0.504641687327684 ]
    mass: 69.723000
    reduced_to: 1
  - symbol: Ga # 6
    coordinates: [  0.504641687327684,  0.004641687327684,  0.504641687327684 ]
    mass: 69.723000
    reduced_to: 1
  - symbol: Ga # 7
    coordinates: [  0.004641687327684,  0.504641687327684,  0.504641687327684 ]
    mass: 69.723000
    reduced_to: 1
  - symbol: Ga # 8
    coordinates: [  0.504641687327684,  0.504641687327684,  0.504641687327684 ]
    mass: 69.723000
    reduced_to: 1
  - symbol: Ga # 9
    coordinates: [  0.245358312672316,  0.495358312672316,  0.254641687327684 ]
    mass: 69.723000
    reduced_to: 9
  - symbol: Ga # 10
    coordinates: [  0.745358312672316,  0.495358312672316,  0.254641687327684 ]
    mass: 69.723000
    reduced_to: 9
  - symbol: Ga # 11
    coordinates: [  0.245358312672316,  0.995358312672316,  0.254641687327684 ]
    mass: 69.723000
    reduced_to: 9
  - symbol: Ga # 12
    coordinates: [  0.745358312672316,  0.995358312672316,  0.254641687327684 ]
    mass: 69.723000
    reduced_to: 9
  - symbol: Ga # 13
    coordinates: [  0.245358312672316,  0.495358312672316,  0.754641687327684 ]
    mass: 69.723000
    reduced_to: 9
  - symbol: Ga # 14
    coordinates: [  0.745358312672316,  0.495358312672316,  0.754641687327684 ]
    mass: 69.723000
    reduced_to: 9
  - symbol: Ga # 15
    coordinates: [  0.245358312672316,  0.995358312672316,  0.754641687327684 ]
    mass: 69.723000
    reduced_to: 9
  - symbol: Ga # 16
    coordinates: [  0.745358312672316,  0.995358312672316,  0.754641687327684 ]
    mass: 69.723000
    reduced_to: 9
  - symbol: Ga # 17
    coordinates: [  0.254641687327684,  0.245358312672316,  0.495358312672316 ]
    mass: 69.723000
    reduced_to: 17
  - symbol: Ga # 18
    coordinates: [  0.754641687327684,  0.245358312672316,  0.495358312672316 ]
    mass: 69.723000
    reduced_to: 17
  - symbol: Ga # 19
    coordinates: [  0.254641687327684,  0.745358312672316,  0.495358312672316 ]
    mass: 69.723000
    reduced_to: 17
  - symbol: Ga # 20
    coordinates: [  0.754641687327684,  0.745358312672316,  0.495358312672316 ]
    mass: 69.723000
    reduced_to: 17
  - symbol: Ga # 21
    coordinates: [  0.254641687327684,  0.245358312672316,  0.995358312672316 ]
    mass: 69.723000
    reduced_to: 17
  - symbol: Ga # 22
    coordinates: [  0.754641687327684,  0.245358312672316,  0.995358312672316 ]
    mass: 69.723000
    reduced_to: 17
  - symbol: Ga # 23
    coordinates: [  0.254641687327684,  0.745358312672316,  0.995358312672316 ]
    mass: 69.723000
    reduced_to: 17
  - symbol: Ga # 24
    coordinates: [  0.754641687327684,  0.745358312672316,  0.995358312672316 ]
    mass: 69.723000
    reduced_to: 17
  - symbol: Ga # 25
    coordinates: [  0.495358312672316,  0.254641687327684,  0.245358312672316 ]
    mass: 69.723000
    reduced_to: 25
  - symbol: Ga # 26
    coordinates: [  0.995358312672316,  0.254641687327684,  0.245358312672316 ]
    mass: 69.723000
    reduced_to: 25
  - symbol: Ga # 27
    coordinates: [  0.495358312672316,  0.754641687327684,  0.245358312672316 ]
    mass: 69.723000
    reduced_to: 25
  - symbol: Ga # 28
    coordinates: [  0.995358312672316,  0.754641687327684,  0.245358312672316 ]
    mass: 69.723000
    reduced_to: 25
  - symbol: Ga # 29
    coordinates: [  0.495358312672316,  0.254641687327684,  0.745358312672316 ]
    mass: 69.723000
    reduced_to: 25
  - symbol: Ga # 30
    coordinates: [  0.995358312672316,  0.254641687327684,  0.745358312672316 ]
    mass: 69.723000
    reduced_to: 25
  - symbol: Ga # 31
    coordinates: [  0.495358312672316,  0.754641687327684,  0.745358312672316 ]
    mass: 69.723000
    reduced_to: 25
  - symbol: Ga # 32
    coordinates: [  0.995358312672316,  0.754641687327684,  0.745358312672316 ]
    mass: 69.723000
    reduced_to: 25
  - symbol: Ag # 33
    coordinates: [  0.161733233802946,  0.284409408455995,  0.317477250310096 ]
    mass: 107.868200
    reduced_to: 33
  - symbol: Ag # 34
    coordinates: [  0.661733233802946,  0.284409408455995,  0.317477250310096 ]
    mass: 107.868200
    reduced_to: 33
  - symbol: Ag # 35
    coordinates: [  0.161733233802946,  0.784409408455995,  0.317477250310096 ]
    mass: 107.868200
    reduced_to: 33
  - symbol: Ag # 36
    coordinates: [  0.661733233802946,  0.784409408455995,  0.317477250310096 ]
    mass: 107.868200
    reduced_to: 33
  - symbol: Ag # 37
    coordinates: [  0.161733233802946,  0.284409408455995,  0.817477250310096 ]
    mass: 107.868200
    reduced_to: 33
  - symbol: Ag # 38
    coordinates: [  0.661733233802946,  0.284409408455995,  0.817477250310096 ]
    mass: 107.868200
    reduced_to: 33
  - symbol: Ag # 39
    coordinates: [  0.161733233802946,  0.784409408455995,  0.817477250310096 ]
    mass: 107.868200
    reduced_to: 33
  - symbol: Ag # 40
    coordinates: [  0.661733233802946,  0.784409408455995,  0.817477250310096 ]
    mass: 107.868200
    reduced_to: 33
  - symbol: Ag # 41
    coordinates: [  0.317477250310096,  0.161733233802946,  0.284409408455995 ]
    mass: 107.868200
    reduced_to: 41
  - symbol: Ag # 42
    coordinates: [  0.817477250310096,  0.161733233802946,  0.284409408455995 ]
    mass: 107.868200
    reduced_to: 41
  - symbol: Ag # 43
    coordinates: [  0.317477250310096,  0.661733233802946,  0.284409408455995 ]
    mass: 107.868200
    reduced_to: 41
  - symbol: Ag # 44
    coordinates: [  0.817477250310096,  0.661733233802946,  0.284409408455995 ]
    mass: 107.868200
    reduced_to: 41
  - symbol: Ag # 45
    coordinates: [  0.317477250310096,  0.161733233802946,  0.784409408455995 ]
    mass: 107.868200
    reduced_to: 41
  - symbol: Ag # 46
    coordinates: [  0.817477250310096,  0.161733233802946,  0.784409408455995 ]
    mass: 107.868200
    reduced_to: 41
  - symbol: Ag # 47
    coordinates: [  0.317477250310096,  0.661733233802946,  0.784409408455995 ]
    mass: 107.868200
    reduced_to: 41
  - symbol: Ag # 48
    coordinates: [  0.817477250310096,  0.661733233802946,  0.784409408455995 ]
    mass: 107.868200
    reduced_to: 41
  - symbol: Ag # 49
    coordinates: [  0.284409408455995,  0.317477250310096,  0.161733233802946 ]
    mass: 107.868200
    reduced_to: 49
  - symbol: Ag # 50
    coordinates: [  0.784409408455995,  0.317477250310096,  0.161733233802946 ]
    mass: 107.868200
    reduced_to: 49
  - symbol: Ag # 51
    coordinates: [  0.284409408455995,  0.817477250310096,  0.161733233802946 ]
    mass: 107.868200
    reduced_to: 49
  - symbol: Ag # 52
    coordinates: [  0.784409408455995,  0.817477250310096,  0.161733233802946 ]
    mass: 107.868200
    reduced_to: 49
  - symbol: Ag # 53
    coordinates: [  0.284409408455995,  0.317477250310096,  0.661733233802946 ]
    mass: 107.868200
    reduced_to: 49
  - symbol: Ag # 54
    coordinates: [  0.784409408455995,  0.317477250310096,  0.661733233802946 ]
    mass: 107.868200
    reduced_to: 49
  - symbol: Ag # 55
    coordinates: [  0.284409408455995,  0.817477250310096,  0.661733233802946 ]
    mass: 107.868200
    reduced_to: 49
  - symbol: Ag # 56
    coordinates: [  0.784409408455995,  0.817477250310096,  0.661733233802946 ]
    mass: 107.868200
    reduced_to: 49
  - symbol: Ag # 57
    coordinates: [  0.465590591544005,  0.182522749689904,  0.411733233802946 ]
    mass: 107.868200
    reduced_to: 57
  - symbol: Ag # 58
    coordinates: [  0.965590591544005,  0.182522749689904,  0.411733233802946 ]
    mass: 107.868200
    reduced_to: 57
  - symbol: Ag # 59
    coordinates: [  0.465590591544005,  0.682522749689904,  0.411733233802946 ]
    mass: 107.868200
    reduced_to: 57
  - symbol: Ag # 60
    coordinates: [  0.965590591544005,  0.682522749689904,  0.411733233802946 ]
    mass: 107.868200
    reduced_to: 57
  - symbol: Ag # 61
    coordinates: [  0.465590591544005,  0.182522749689904,  0.911733233802946 ]
    mass: 107.868200
    reduced_to: 57
  - symbol: Ag # 62
    coordinates: [  0.965590591544005,  0.182522749689904,  0.911733233802946 ]
    mass: 107.868200
    reduced_to: 57
  - symbol: Ag # 63
    coordinates: [  0.465590591544005,  0.682522749689904,  0.911733233802946 ]
    mass: 107.868200
    reduced_to: 57
  - symbol: Ag # 64
    coordinates: [  0.965590591544005,  0.682522749689904,  0.911733233802946 ]
    mass: 107.868200
    reduced_to: 57
  - symbol: Ag # 65
    coordinates: [  0.067477250310096,  0.088266766197054,  0.215590591544005 ]
    mass: 107.868200
    reduced_to: 65
  - symbol: Ag # 66
    coordinates: [  0.567477250310096,  0.088266766197054,  0.215590591544005 ]
    mass: 107.868200
    reduced_to: 65
  - symbol: Ag # 67
    coordinates: [  0.067477250310096,  0.588266766197054,  0.215590591544005 ]
    mass: 107.868200
    reduced_to: 65
  - symbol: Ag # 68
    coordinates: [  0.567477250310096,  0.588266766197054,  0.215590591544005 ]
    mass: 107.868200
    reduced_to: 65
  - symbol: Ag # 69
    coordinates: [  0.067477250310096,  0.088266766197054,  0.715590591544005 ]
    mass: 107.868200
    reduced_to: 65
  - symbol: Ag # 70
    coordinates: [  0.567477250310096,  0.088266766197054,  0.715590591544005 ]
    mass: 107.868200
    reduced_to: 65
  - symbol: Ag # 71
    coordinates: [  0.067477250310096,  0.588266766197054,  0.715590591544005 ]
    mass: 107.868200
    reduced_to: 65
  - symbol: Ag # 72
    coordinates: [  0.567477250310096,  0.588266766197054,  0.715590591544005 ]
    mass: 107.868200
    reduced_to: 65
  - symbol: Ag # 73
    coordinates: [  0.215590591544005,  0.067477250310096,  0.088266766197054 ]
    mass: 107.868200
    reduced_to: 73
  - symbol: Ag # 74
    coordinates: [  0.715590591544005,  0.067477250310096,  0.088266766197054 ]
    mass: 107.868200
    reduced_to: 73
  - symbol: Ag # 75
    coordinates: [  0.215590591544005,  0.567477250310096,  0.088266766197054 ]
    mass: 107.868200
    reduced_to: 73
  - symbol: Ag # 76
    coordinates: [  0.715590591544005,  0.567477250310096,  0.088266766197054 ]
    mass: 107.868200
    reduced_to: 73
  - symbol: Ag # 77
    coordinates: [  0.215590591544005,  0.067477250310096,  0.588266766197054 ]
    mass: 107.868200
    reduced_to: 73
  - symbol: Ag # 78
    coordinates: [  0.715590591544005,  0.067477250310096,  0.588266766197054 ]
    mass: 107.868200
    reduced_to: 73
  - symbol: Ag # 79
    coordinates: [  0.215590591544005,  0.567477250310096,  0.588266766197054 ]
    mass: 107.868200
    reduced_to: 73
  - symbol: Ag # 80
    coordinates: [  0.715590591544005,  0.567477250310096,  0.588266766197054 ]
    mass: 107.868200
    reduced_to: 73
  - symbol: Ag # 81
    coordinates: [  0.432522749689904,  0.338266766197054,  0.034409408455995 ]
    mass: 107.868200
    reduced_to: 81
  - symbol: Ag # 82
    coordinates: [  0.932522749689904,  0.338266766197054,  0.034409408455995 ]
    mass: 107.868200
    reduced_to: 81
  - symbol: Ag # 83
    coordinates: [  0.432522749689904,  0.838266766197054,  0.034409408455995 ]
    mass: 107.868200
    reduced_to: 81
  - symbol: Ag # 84
    coordinates: [  0.932522749689904,  0.838266766197054,  0.034409408455995 ]
    mass: 107.868200
    reduced_to: 81
  - symbol: Ag # 85