phonopy:
  version: "2.21.0"
  frequency_unit_conversion_factor: 15.633302
  symmetry_tolerance: 1.00000e-04

space_group:
  type: "P2_1/c"
  number: 14
  Hall_symbol: "-P 2ybc"

primitive_matrix:
- [ -1.000000000000000,  0.000000000000000,  0.000000000000000 ]
- [  0.000000000000000,  1.000000000000000,  0.000000000000000 ]
- [  0.000000000000000,  0.000000000000000, -1.000000000000000 ]

supercell_matrix:
- [   0,   5,   0 ]
- [   4,   0,   0 ]
- [  -2,   0,  -3 ]

primitive_cell:
  lattice:
  - [     0.000000000000000,    -5.807215161405432,    -0.002794054335900 ] # a
  - [     5.270270700388363,     0.000000000000000,    -0.000000000000000 ] # b
  - [     0.000000000000000,     5.059787027759308,     9.535327591961027 ] # c
  points:
  - symbol: Li # 1
    coordinates: [  0.771810897379237,  0.169484619435625,  0.443712413972920 ]
    mass: 6.941000
  - symbol: Li # 2
    coordinates: [  0.228189102620764,  0.669484619435625,  0.056287586027080 ]
    mass: 6.941000
  - symbol: Li # 3
    coordinates: [  0.228189102620764,  0.830515380564375,  0.556287586027080 ]
    mass: 6.941000
  - symbol: Li # 4
    coordinates: [  0.771810897379237,  0.330515380564375,  0.943712413972920 ]
    mass: 6.941000
  - symbol: Li # 5
    coordinates: [  0.761692859360539,  0.919209556620641,  0.168368346237566 ]
    mass: 6.941000
  - symbol: Li # 6
    coordinates: [  0.238307140639462,  0.419209556620641,  0.331631653762433 ]
    mass: 6.941000
  - symbol: Li # 7
    coordinates: [  0.238307140639463,  0.080790443379359,  0.831631653762434 ]
    mass: 6.941000
  - symbol: Li # 8
    coordinates: [  0.761692859360539,  0.580790443379359,  0.668368346237566 ]
    mass: 6.941000
  - symbol: As # 9
    coordinates: [  0.714126296565602,  0.668290451927613,  0.400582173135895 ]
    mass: 74.921600
  - symbol: As # 10
    coordinates: [  0.285873703434399,  0.168290451927613,  0.099417826864105 ]
    mass: 74.921600
  - symbol: As # 11
    coordinates: [  0.285873703434400,  0.331709548072387,  0.599417826864105 ]
    mass: 74.921600
  - symbol: As # 12
    coordinates: [  0.714126296565602,  0.831709548072387,  0.900582173135895 ]
    mass: 74.921600
  - symbol: As # 13
    coordinates: [  0.698389919557972,  0.427838209219704,  0.197519783828525 ]
    mass: 74.921600
  - symbol: As # 14
    coordinates: [  0.301610080442029,  0.927838209219704,  0.302480216171475 ]
    mass: 74.921600
  - symbol: As # 15
    coordinates: [  0.301610080442029,  0.572161790780296,  0.802480216171475 ]
    mass: 74.921600
  - symbol: As # 16
    coordinates: [  0.698389919557972,  0.072161790780296,  0.697519783828525 ]
    mass: 74.921600
  reciprocal_lattice: # without 2pi
  - [     0.000000000000000,    -0.172243553042847,     0.091398610786705 ] # a*
  - [     0.189743574258209,    -0.000000000000000,     0.000000000000000 ] # b*
  - [     0.000000000000000,    -0.000050471034327,     0.104899948432611 ] # c*

unit_cell:
  lattice:
  - [     0.000000000000000,     5.807215161405431,     0.002794054335900 ] # a
  - [     5.270270700388364,     0.000000000000000,     0.000000000000000 ] # b
  - [     0.000000000000000,    -5.059787027759308,    -9.535327591961027 ] # c
  points:
  - symbol: Li # 1
    coordinates: [  0.228189102620764,  0.169484619435625,  0.556287586027080 ]
    mass: 6.941000
    reduced_to: 1
  - symbol: Li # 2
    coordinates: [  0.771810897379236,  0.669484619435625,  0.943712413972920 ]
    mass: 6.941000
    reduced_to: 2
  - symbol: Li # 3
    coordinates: [  0.771810897379236,  0.830515380564375,  0.443712413972920 ]
    mass: 6.941000
    reduced_to: 3
  - symbol: Li # 4
    coordinates: [  0.228189102620764,  0.330515380564375,  0.056287586027080 ]
    mass: 6.941000
    reduced_to: 4
  - symbol: Li # 5
    coordinates: [  0.238307140639462,  0.919209556620641,  0.831631653762434 ]
    mass: 6.941000
    reduced_to: 5
  - symbol: Li # 6
    coordinates: [  0.761692859360538,  0.419209556620641,  0.668368346237566 ]
    mass: 6.941000
    reduced_to: 6
  - symbol: Li # 7
    coordinates: [  0.761692859360538,  0.080790443379359,  0.168368346237566 ]
    mass: 6.941000
    reduced_to: 7
  - symbol: Li # 8
    coordinates: [  0.238307140639462,  0.580790443379359,  0.331631653762434 ]
    mass: 6.941000
    reduced_to: 8
  - symbol: As # 9
    coordinates: [  0.285873703434399,  0.668290451927613,  0.599417826864104 ]
    mass: 74.921600
    reduced_to: 9
  - symbol: As # 10
    coordinates: [  0.714126296565601,  0.168290451927613,  0.900582173135896 ]
    mass: 74.921600
    reduced_to: 10
  - symbol: As # 11
    coordinates: [  0.714126296565601,  0.331709548072387,  0.400582173135896 ]
    mass: 74.921600
    reduced_to: 11
  - symbol: As # 12
    coordinates: [  0.285873703434399,  0.831709548072387,  0.099417826864104 ]
    mass: 74.921600
    reduced_to: 12
  - symbol: As # 13
    coordinates: [  0.301610080442028,  0.427838209219704,  0.802480216171475 ]
    mass: 74.921600
    reduced_to: 13
  - symbol: As # 14
    coordinates: [  0.698389919557972,  0.927838209219704,  0.697519783828525 ]
    mass: 74.921600
    reduced_to: 14
  - symbol: As # 15
    coordinates: [  0.698389919557972,  0.572161790780296,  0.197519783828526 ]
    mass: 74.921600
    reduced_to: 15
  - symbol: As # 16
    coordinates: [  0.301610080442028,  0.072161790780296,  0.302480216171475 ]
    mass: 74.921600
    reduced_to: 16

supercell:
  lattice:
  - [    21.081082801553457,    10.119574055518616,    19.070655183922053 ] # a
  - [     0.000000000000000,    29.036075807027153,     0.013970271679501 ] # b
  - [     0.000000000000000,    15.179361083277922,    28.605982775883081 ] # c
  points:
  - symbol: Li # 1
    coordinates: [  0.042371154858906,  0.045637820524153,  0.786323368085036 ]
    mass: 6.941000
    reduced_to: 1
  - symbol: Li # 2
    coordinates: [  0.042371154858906,  0.245637820524153,  0.786323368085036 ]
    mass: 6.941000
    reduced_to: 1
  - symbol: Li # 3
    coordinates: [  0.042371154858906,  0.445637820524153,  0.786323368085036 ]
    mass: 6.941000
    reduced_to: 1
  - symbol: Li # 4
    coordinates: [  0.042371154858906,  0.645637820524153,  0.786323368085036 ]
    mass: 6.941000
    reduced_to: 1
  - symbol: Li # 5
    coordinates: [  0.042371154858906,  0.845637820524153,  0.786323368085036 ]
    mass: 6.941000
    reduced_to: 1
  - symbol: Li # 6
    coordinates: [  0.292371154858906,  0.045637820524153,  0.619656701418369 ]
    mass: 6.941000
    reduced_to: 1
  - symbol: Li # 7
    coordinates: [  0.292371154858906,  0.245637820524153,  0.619656701418369 ]
    mass: 6.941000
    reduced_to: 1
  - symbol: Li # 8
    coordinates: [  0.292371154858906,  0.445637820524153,  0.619656701418369 ]
    mass: 6.941000
    reduced_to: 1
  - symbol: Li # 9
    coordinates: [  0.292371154858906,  0.645637820524153,  0.619656701418369 ]
    mass: 6.941000
    reduced_to: 1
  - symbol: Li # 10
    coordinates: [  0.292371154858906,  0.845637820524153,  0.619656701418369 ]
    mass: 6.941000
    reduced_to: 1
  - symbol: Li # 11
    coordinates: [  0.542371154858906,  0.045637820524153,  0.452990034751703 ]
    mass: 6.941000
    reduced_to: 1
  - symbol: Li # 12
    coordinates: [  0.542371154858906,  0.245637820524153,  0.452990034751703 ]
    mass: 6.941000
    reduced_to: 1
  - symbol: Li # 13
    coordinates: [  0.542371154858906,  0.445637820524153,  0.452990034751703 ]
    mass: 6.941000
    reduced_to: 1
  - symbol: Li # 14
    coordinates: [  0.542371154858906,  0.645637820524153,  0.452990034751703 ]
    mass: 6.941000
    reduced_to: 1
  - symbol: Li # 15
    coordinates: [  0.542371154858906,  0.845637820524153,  0.452990034751703 ]
    mass: 6.941000
    reduced_to: 1
  - symbol: Li # 16
    coordinates: [  0.792371154858906,  0.045637820524153,  0.286323368085036 ]
    mass: 6.941000
    reduced_to: 1
  - symbol: Li # 17
    coordinates: [  0.792371154858906,  0.245637820524153,  0.286323368085036 ]
    mass: 6.941000
    reduced_to: 1
  - symbol: Li # 18
    coordinates: [  0.792371154858906,  0.445637820524153,  0.286323368085036 ]
    mass: 6.941000
    reduced_to: 1
  - symbol: Li # 19
    coordinates: [  0.792371154858906,  0.645637820524153,  0.286323368085036 ]
    mass: 6.941000
    reduced_to: 1
  - symbol: Li # 20
    coordinates: [  0.792371154858906,  0.845637820524153,  0.286323368085036 ]
    mass: 6.941000
    reduced_to: 1
  - symbol: Li # 21
    coordinates: [  0.042371154858906,  0.045637820524153,  0.452990034751703 ]
    mass: 6.941000
    reduced_to: 1
  - symbol: Li # 22
    coordinates: [  0.042371154858906,  0.245637820524153,  0.452990034751703 ]
    mass: 6.941000
    reduced_to: 1
  - symbol: Li # 23
    coordinates: [  0.042371154858906,  0.445637820524153,  0.452990034751703 ]
    mass: 6.941000
    reduced_to: 1
  - symbol: Li # 24
    coordinates: [  0.042371154858906,  0.645637820524153,  0.452990034751703 ]
    mass: 6.941000
    reduced_to: 1
  - symbol: Li # 25
    coordinates: [  0.042371154858906,  0.845637820524153,  0.452990034751703 ]
    mass: 6.941000
    reduced_to: 1
  - symbol: Li # 26
    coordinates: [  0.292371154858906,  0.045637820524153,  0.286323368085036 ]
    mass: 6.941000
    reduced_to: 1
  - symbol: Li # 27
    coordinates: [  0.292371154858906,  0.245637820524153,  0.286323368085036 ]
    mass: 6.941000
    reduced_to: 1
  - symbol: Li # 28
    coordinates: [  0.292371154858906,  0.445637820524153,  0.286323368085036 ]
    mass: 6.941000
    reduced_to: 1
  - symbol: Li # 29
    coordinates: [  0.292371154858906,  0.645637820524153,  0.286323368085036 ]
    mass: 6.941000
    reduced_to: 1
  - symbol: Li # 30
    coordinates: [  0.292371154858906,  0.845637820524153,  0.286323368085036 ]
    mass: 6.941000
    reduced_to: 1
  - symbol: Li # 31
    coordinates: [  0.542371154858906,  0.045637820524153,  0.119656701418369 ]
    mass: 6.941000
    reduced_to: 1
  - symbol: Li # 32
    coordinates: [  0.542371154858906,  0.245637820524153,  0.119656701418369 ]
    mass: 6.941000
    reduced_to: 1
  - symbol: Li # 33
    coordinates: [  0.542371154858906,  0.445637820524153,  0.119656701418369 ]
    mass: 6.941000
    reduced_to: 1
  - symbol: Li # 34
    coordinates: [  0.542371154858906,  0.645637820524153,  0.119656701418369 ]
    mass: 6.941000
    reduced_to: 1
  - symbol: Li # 35
    coordinates: [  0.542371154858906,  0.845637820524153,  0.119656701418369 ]
    mass: 6.941000
    reduced_to: 1
  - symbol: Li # 36
    coordinates: [  0.792371154858906,  0.045637820524153,  0.952990034751703 ]
    mass: 6.941000
    reduced_to: 1
  - symbol: Li # 37
    coordinates: [  0.792371154858906,  0.245637820524153,  0.952990034751703 ]
    mass: 6.941000
    reduced_to: 1
  - symbol: Li # 38
    coordinates: [  0.792371154858906,  0.445637820524153,  0.952990034751703 ]
    mass: 6.941000
    reduced_to: 1
  - symbol: Li # 39
    coordinates: [  0.792371154858906,  0.645637820524153,  0.952990034751703 ]
    mass: 6.941000
    reduced_to: 1
  - symbol: Li # 40
    coordinates: [  0.792371154858906,  0.845637820524153,  0.952990034751703 ]
    mass: 6.941000
    reduced_to: 1
  - symbol: Li # 41
    coordinates: [  0.042371154858906,  0.045637820524153,  0.119656701418369 ]
    mass: 6.941000
    reduced_to: 1
  - symbol: Li # 42
    coordinates: [  0.042371154858906,  0.245637820524153,  0.119656701418369 ]
    mass: 6.941000
    reduced_to: 1
  - symbol: Li # 43
    coordinates: [  0.042371154858906,  0.445637820524153,  0.119656701418369 ]
    mass: 6.941000
    reduced_to: 1
  - symbol: Li # 44
    coordinates: [  0.042371154858906,  0.645637820524153,  0.119656701418369 ]
    mass: 6.941000
    reduced_to: 1
  - symbol: Li # 45
    coordinates: [  0.042371154858906,  0.845637820524153,  0.119656701418369 ]
    mass: 6.941000
    reduced_to: 1
  - symbol: Li # 46
    coordinates: [  0.292371154858906,  0.045637820524153,  0.952990034751703 ]
    mass: 6.941000
    reduced_to: 1
  - symbol: Li # 47
    coordinates: [  0.292371154858906,  0.245637820524153,  0.952990034751703 ]
    mass: 6.941000
    reduced_to: 1
  - symbol: Li # 48
    coordinates: [  0.292371154858906,  0.445637820524153,  0.952990034751703 ]
    mass: 6.941000
    reduced_to: 1
  - symbol: Li # 49
    coordinates: [  0.292371154858906,  0.645637820524153,  0.952990034751703 ]
    mass: 6.941000
    reduced_to: 1
  - symbol: Li # 50
    coordinates: [  0.292371154858906,  0.845637820524153,  0.952990034751703 ]
    mass: 6.941000
    reduced_to: 1
  - symbol: Li # 51
    coordinates: [  0.542371154858906,  0.045637820524153,  0.786323368085036 ]
    mass: 6.941000
    reduced_to: 1
  - symbol: Li # 52
    coordinates: [  0.542371154858906,  0.245637820524153,  0.786323368085036 ]
    mass: 6.941000
    reduced_to: 1
  - symbol: Li # 53
    coordinates: [  0.542371154858906,  0.445637820524153,  0.786323368085036 ]
    mass: 6.941000
    reduced_to: 1
  - symbol: Li # 54
    coordinates: [  0.542371154858906,  0.645637820524153,  0.786323368085036 ]
    mass: 6.941000
    reduced_to: 1
  - symbol: Li # 55
    coordinates: [  0.542371154858906,  0.845637820524153,  0.786323368085036 ]
    mass: 6.941000
    reduced_to: 1
  - symbol: Li # 56
    coordinates: [  0.792371154858906,  0.045637820524153,  0.619656701418369 ]
    mass: 6.941000
    reduced_to: 1
  - symbol: Li # 57
    coordinates: [  0.792371154858906,  0.245637820524153,  0.619656701418369 ]
    mass: 6.941000
    reduced_to: 1
  - symbol: Li # 58
    coordinates: [  0.792371154858906,  0.445637820524153,  0.619656701418369 ]
    mass: 6.941000
    reduced_to: 1
  - symbol: Li # 59
    coordinates: [  0.792371154858906,  0.645637820524153,  0.619656701418369 ]
    mass: 6.941000
    reduced_to: 1
  - symbol: Li # 60
    coordinates: [  0.792371154858906,  0.845637820524153,  0.619656701418369 ]
    mass: 6.941000
    reduced_to: 1
  - symbol: Li # 61
    coordinates: [  0.167371154858906,  0.154362179475847,  0.573848425436422 ]
    mass: 6.941000
    reduced_to: 61
  - symbol: Li # 62
    coordinates: [  0.167371154858906,  0.354362179475847,  0.573848425436422 ]
    mass: 6.941000
    reduced_to: 61
  - symbol: Li # 63
    coordinates: [  0.167371154858906,  0.554362179475847,  0.573848425436422 ]
    mass: 6.941000
    reduced_to: 61
  - symbol: Li # 64
    coordinates: [  0.167371154858906,  0.754362179475847,  0.573848425436422 ]
    mass: 6.941000
    reduced_to: 61
  - symbol: Li # 65
    coordinates: [  0.167371154858906,  0.954362179475847,  0.573848425436422 ]
    mass: 6.941000
    reduced_to: 61
  - symbol: Li # 66
    coordinates: [  0.417371154858906,  0.154362179475847,  0.407181758769756 ]
    mass: 6.941000
    reduced_to: 61
  - symbol: Li # 67
    coordinates: [  0.417371154858906,  0.354362179475847,  0.407181758769756 ]
    mass: 6.941000
    reduced_to: 61
  - symbol: Li # 68
    coordinates: [  0.417371154858906,  0.554362179475847,  0.407181758769756 ]
    mass: 6.941000
    reduced_to: 61
  - symbol: Li # 69
    coordinates: [  0.417371154858906,  0.754362179475847,  0.407181758769756 ]
    mass: 6.941000
    reduced_to: 61
  - symbol: Li # 70
    coordinates: [  0.417371154858906,  0.954362179475847,  0.407181758769756 ]
    mass: 6.941000
    reduced_to: 61
  - symbol: Li # 71
    coordinates: [  0.667371154858906,  0.154362179475847,  0.240515092103089 ]
    mass: 6.941000
    reduced_to: 61
  - symbol: Li # 72
    coordinates: [  0.667371154858906,  0.354362179475847,  0.240515092103089 ]
    mass: 6.941000
    reduced_to: 61
  - symbol: Li # 73
    coordinates: [  0.667371154858906,  0.554362179475847,  0.240515092103089 ]
    mass: 6.941000
    reduced_to: 61
  - symbol: Li # 74
    coordinates: [  0.667371154858906,  0.754362179475847,  0.240515092103089 ]
    mass: 6.941000
    reduced_to: 61
  - symbol: Li # 75
    coordinates: [  0.667371154858906,  0.954362179475847,  0.240515092103089 ]
    mass: 6.941000
    reduced_to: 61
  - symbol: Li # 76
    coordinates: [  0.917371154858906,  0.154362179475847,  0.073848425436422 ]
    mass: 6.941000
    reduced_to: 61
  - symbol: Li # 77
    coordinates: [  0.917371154858906,  0.354362179475847,  0.073848425436422 ]
    mass: 6.941000
    reduced_to: 61
  - symbol: Li # 78
    coordinates: [  0.917371154858906,  0.554362179475847,  0.073848425436422 ]
    mass: 6.941000
    reduced_to: 61
  - symbol: Li # 79
    coordinates: [  0.917371154858906,  0.754362179475847,  0.073848425436422 ]
    mass: 6.941000
    reduced_to: 61
  - symbol: Li # 80
    coordinates: [  0.917371154858906,  0.954362179475847,  0.073848425436422 ]
    mass: 6.941000
    reduced_to: 61
  - symbol: Li # 81
    coordinates: [  0.167371154858906,  0.154362179475847,  0.240515092103089 ]
    mass: 6.941000
    reduced_to: 61
  - symbol: Li # 82
    coordinates: [  0.167371154858906,  0.354362179475847,  0.240515092103089 ]
    mass: 6.941000
    reduced_to: 61
  - symbol: Li # 83
    coordinates: [  0.167371154858906,  0.554362179475847,  0.240515092103089 ]
    mass: 6.941000
    reduced_to: 61
  - symbol: Li # 84
    coordinates: [  0.167371154858906,  0.754362179475847,  0.240515092103089 ]
    mass: 6.941000
    reduced_to: 61
  - symbol: Li # 85
    coordinates: [  0.167371154858906,  0.954362179475847,  0.240515092103089 ]
    mass: 6.941000
    reduced_to: 61
  - symbol: Li # 86
    coordinates: [  0.417371154858906,  0.154362179475847,  0.073848425436422 ]
    mass: 6.941000
    reduced_to: 61
  - symbol: Li # 87
    coordinates: [  0.417371154858906,  0.354362179475847,  0.073848425436422 ]
    mass: 6.941000
    reduced_to: 61
  - symbol: Li # 88
    coordinates: [  0.417371154858906,  0.554362179475847,  0.073848425436422 ]
    mass: 6.941000
    reduced_to: 61
  - symbol: Li # 89
    coordinates: [  0.417371154858906,  0.754362179475847,  0.073848425436422 ]
    mass: 6.941000
    reduced_to: 61
  - symbol: Li # 90
    coordinates: [  0.417371154858906,  0.954362179475847,  0.073848425436422 ]
    mass: 6.941000
    reduced_to: 61
  - symbol: Li # 91
    coordinates: [  0.667371154858906,  0.154362179475847,  0.907181758769756 ]
    mass: 6.941000
    reduced_to: 61
  - symbol: Li # 92
    coordinates: [  0.667371154858906,  0.354362179475847,  0.907181758769756 ]
    mass: 6.941000
    reduced_to: 61
  - symbol: Li # 93
    coordinates: [  0.667371154858906,  0.554362179475847,  0.907181758769756 ]
    mass: 6.941000
    reduced_to: 61
  - symbol: Li # 94
    coordinates: [  0.667371154858906,  0.754362179475847,  0.907181758769756 ]
    mass: 6.941000
    reduced_to: 61
  - symbol: Li # 95
    coordinates: [  0.667371154858906,  0.954362179475847,  0.907181758769756 ]
    mass: 6.941000
    reduced_to: 61
  - symbol: Li # 96
    coordinates: [  0.917371154858906,  0.154362179475847,  0.740515092103089 ]
    mass: 6.941000
    reduced_to: 61
  - symbol: Li # 97
    coordinates: [  0.917371154858906,  0.354362179475847,  0.740515092103089 ]
    mass: 6.941000
    reduced_to: 61
  - symbol: Li # 98
    coordinates: [  0.917371154858906,  0.554362179475847,  0.740515092103089 ]
    mass: 6.941000
    reduced_to: 61
  - symbol: Li # 99
    coordinates: [  0.917371154858906,  0.754362179475847,  0.740515092103089 ]
    mass: 6.941000
    reduced_to: 61
  - symbol: Li # 100
    coordinates: [  0.917371154858906,  0.954362179475847,  0.740515092103089 ]
    mass: 6.941000
    reduced_to: 61
  - symbol: Li # 101
    coordinates: [  0.167371154858906,  0.154362179475847,  0.907181758769756 ]
    mass: 6.941000
    reduced_to: 61
  - symbol: Li # 102
    coordinates: [  0.167371154858906,  0.354362179475847,  0.907181758769756 ]
    mass: 6.941000
    reduced_to: 61
  - symbol: Li # 103
    coordinates: [  0.167371154858906,  0.554362179475847,  0.907181758769756 ]
    mass: 6.941000
    reduced_to: 61
  - symbol: Li # 104
    coordinates: [  0.167371154858906,  0.754362179475847,  0.907181758769756 ]
    mass: 6.941000
    reduced_to: 61
  - symbol: Li # 105
    coordinates: [  0.167371154858906,  0.954362179475847,  0.907181758769756 ]
    mass: 6.941000
    reduced_to: 61
  - symbol: Li # 106
    coordinates: [  0.417371154858906,  0.154362179475847,  0.740515092103089 ]
    mass: 6.941000
    reduced_to: 61
  - symbol: Li # 107
    coordinates: [  0.417371154858906,  0.354362179475847,  0.740515092103089 ]
    mass: 6.941000
    reduced_to: 61
  - symbol: Li # 108
    coordinates: [  0.417371154858906,  0.554362179475847,  0.740515092103089 ]
    mass: 6.941000
    reduced_to: 61
  - symbol: Li # 109
    coordinates: [  0.417371154858906,  0.754362179475847,  0.740515092103089 ]
    mass: 6.941000
    reduced_to: 61
  - symbol: Li # 110
    coordinates: [  0.417371154858906,  0.954362179475847,  0.740515092103089 ]
    mass: 6.941000
    reduced_to: 61
  - symbol: Li # 111
    coordinates: [  0.667371154858906,  0.154362179475847,  0.573848425436422 ]
    mass: 6.941000
    reduced_to: 61
  - symbol: Li # 112
    coordinates: [  0.667371154858906,  0.354362179475847,  0.573848425436422 ]
    mass: 6.941000
    reduced_to: 61
  - symbol: Li # 113
    coordinates: [  0.667371154858906,  0.554362179475847,  0.573848425436422 ]
    mass: 6.941000
    reduced_to: 61
  - symbol: Li # 114
    coordinates: [  0.667371154858906,  0.754362179475847,  0.573848425436422 ]
    mass: 6.941000
    reduced_to: 61
  - symbol: Li # 115
    coordinates: [  0.667371154858906,  0.954362179475847,  0.573848425436422 ]
    mass: 6.941000
    reduced_to: 61
  - symbol: Li # 116
    coordinates: [  0.917371154858906,  0.154362179475847,  0.407181758769755 ]
    mass: 6.941000
    reduced_to: 61
  - symbol: Li # 117
    coordinates: [  0.917371154858906,  0.354362179475847,  0.407181758769755 ]
    mass: 6.941000
    reduced_to: 61
  - symbol: Li # 118
    coordinates: [  0.917371154858906,  0.554362179475847,  0.407181758769755 ]
    mass: 6.941000
    reduced_to: 61
  - symbol: Li # 119
    coordinates: [  0.917371154858906,  0.754362179475847,  0.407181758769755 ]
    mass: 6.941000
    reduced_to: 61
  - symbol: Li # 120
    coordinates: [  0.917371154858906,  0.954362179475847,  0.407181758769755 ]
    mass: 6.941000
    reduced_to: 61
  - symbol: Li # 121
    coordinates: [  0.207628845141094,  0.154362179475847,  0.713676631914964 ]
    mass: 6.941000
    reduced_to: 121
  - symbol: Li # 122
    coordinates: [  0.207628845141094,  0.354362179475847,  0.713676631914964 ]
    mass: 6.941000
    reduced_to: 121
  - symbol: Li # 123
    coordinates: [  0.207628845141094,  0.554362179475847,  0.713676631914964 ]
    mass: 6.941000
    reduced_to: 121
  - symbol: Li # 124
    coordinates: [  0.207628845141094,  0.754362179475847,  0.713676631914964 ]
    mass: 6.941000
    reduced_to: 121
  - symbol: Li # 125
    coordinates: [  0.207628845141094,  0.954362179475847,  0.713676631914964 ]
    mass: 6.941000
    reduced_to: 121
  - symbol: Li # 126
    coordinates: [  0.457628845141094,  0.154362179475847,  0.547009965248297 ]
    mass: 6.941000
    reduced_to: 121
  - symbol: Li # 127
    coordinates: [  0.457628845141094,  0.354362179475847,  0.547009965248297 ]
    mass: 6.941000
    reduced_to: 121
  - symbol: Li # 128
    coordinates: [  0.457628845141094,  0.554362179475847,  0.547009965248297 ]
    mass: 6.941000
    reduced_to: 121
  - symbol: Li # 129
    coordinates: [  0.457628845141094,  0.754362179475847,  0.547009965248297 ]
    mass: 6.941000
    reduced_to: 121
  - symbol: Li # 130
    coordinates: [  0.457628845141094,  0.954362179475847,  0.547009965248297 ]
    mass: 6.941000
    reduced_to: 121
  - symbol: Li # 131
    coordinates: [  0.707628845141094,  0.154362179475847,  0.380343298581631 ]
    mass: 6.941000
    reduced_to: 121
  - symbol: Li # 132
    coordinates: [  0.707628845141094,  0.354362179475847,  0.380343298581631 ]
    mass: 6.941000
    reduced_to: 121
  - symbol: Li # 133
    coordinates: [  0.707628845141094,  0.554362179475847,  0.380343298581631 ]
    mass: 6.941000
    reduced_to: 121
  - symbol: Li # 134
    coordinates: [  0.707628845141094,  0.754362179475847,  0.380343298581631 ]
    mass: 6.941000
    reduced_to: 121
  - symbol: Li # 135
    coordinates: [  0.707628845141094,  0.954362179475847,  0.380343298581631 ]
    mass: 6.941000
    reduced_to: 121
  - symbol: Li # 136
    coordinates: [  0.957628845141094,  0.154362179475847,  0.213676631914964 ]
    mass: 6.941000
    reduced_to: 121
  - symbol: Li # 137
    coordinates: [  0.957628845141094,  0.354362179475847,  0.213676631914964 ]
    mass: 6.941000
    reduced_to: 121
  - symbol: Li # 138
    coordinates: [  0.957628845141094,  0.554362179475847,  0.213676631914964 ]
    mass: 6.941000
    reduced_to: 121
  - symbol: Li # 139
    coordinates: [  0.957628845141094,  0.754362179475847,  0.213676631914964 ]
    mass: 6.941000
    reduced_to: 121
  - symbol: Li # 140
    coordinates: [  0.957628845141094,  0.954362179475847,  0.213676631914964 ]
    mass: 6.941000
    reduced_to: 121
  - symbol: Li # 141
    coordinates: [  0.207628845141094,  0.154362179475847,  0.380343298581631 ]
    mass: 6.941000
    reduced_to: 121
  - symbol: Li # 142
    coordinates: [  0.207628845141094,  0.354362179475847,  0.380343298581631 ]
    mass: 6.941000
    reduced_to: 121
  - symbol: Li # 143
    coordinates: [  0.207628845141094,  0.554362179475847,  0.380343298581631 ]
    mass: 6.941000
    reduced_to: 121
  - symbol: Li # 144
    coordinates: [  0.207628845141094,  0.754362179475847,  0.380343298581631 ]
    mass: 6.941000
    reduced_to: 121
  - symbol: Li # 145
    coordinates: [  0.207628845141094,  0.954362179475847,  0.380343298581631 ]
    mass: 6.941000
    reduced_to: 121
  - symbol: Li # 146
    coordinates: [  0.457628845141094,  0.154362179475847,  0.213676631914964 ]
    mass: 6.941000
    reduced_to: 121
  - symbol: Li # 147
    coordinates: [  0.457628845141094,  0.354362179475847,  0.213676631914964 ]
    mass: 6.941000
    reduced_to: 121
  - symbol: Li # 148
    coordinates: [  0.457628845141094,  0.554362179475847,  0.213676631914964 ]
    mass: 6.941000
    reduced_to: 121
  - symbol: Li # 149
    coordinates: [  0.457628845141094,  0.754362179475847,  0.213676631914964 ]
    mass: 6.941000
    reduced_to: 121
  - symbol: Li # 150
    coordinates: [  0.457628845141094,  0.954362179475847,  0.213676631914964 ]
    mass: 6.941000
    reduced_to: 121
  - symbol: Li # 151
    coordinates: [  0.707628845141094,  0.154362179475847,  0.047009965248297 ]
    mass: 6.941000
    reduced_to: 121
  - symbol: Li # 152
    coordinates: [  0.707628845141094,  0.354362179475847,  0.047009965248297 ]
    mass: 6.941000
    reduced_to: 121
  - symbol: Li # 153
    coordinates: [  0.707628845141094,  0.554362179475847,  0.047009965248297 ]
    mass: 6.941000
    reduced_to: 121
  - symbol: Li # 154
    coordinates: [  0.707628845141094,  0.754362179475847,  0.047009965248297 ]
    mass: 6.941000
    reduced_to: 121
  - symbol: Li # 155
    coordinates: [  0.707628845141094,  0.954362179475847,  0.047009965248297 ]
    mass: 6.941000
    reduced_to: 121
  - symbol: Li # 156
    coordinates: [  0.957628845141094,  0.154362179475847,  0.880343298581630 ]
    mass: 6.941000
    reduced_to: 121
  - symbol: Li # 157
    coordinates: [  0.957628845141094,  0.354362179475847,  0.880343298581630 ]
    mass: 6.941000
    reduced_to: 121
  - symbol: Li # 158
    coordinates: [  0.957628845141094,  0.554362179475847,  0.880343298581630 ]
    mass: 6.941000
    reduced_to: 121
  - symbol: Li # 159
    coordinates: [  0.957628845141094,  0.754362179475847,  0.880343298581630 ]
    mass: 6.941000
    reduced_to: 121
  - symbol: Li # 160
    coordinates: [  0.957628845141094,  0.954362179475847,  0.880343298581630 ]
    mass: 6.941000
    reduced_to: 121
  - symbol: Li # 161
    coordinates: [  0.207628845141094,  0.154362179475847,  0.047009965248297 ]
    mass: 6.941000
    reduced_to: 121
  - symbol: Li # 162
    coordinates: [  0.207628845141094,  0.354362179475847,  0.047009965248297 ]
    mass: 6.941000
    reduced_to: 121
  - symbol: Li # 163
    coordinates: [  0.207628845141094,  0.554362179475847,  0.047009965248297 ]
    mass: 6.941000
    reduced_to: 121
  - symbol: Li # 164
    coordinates: [  0.207628845141094,  0.754362179475847,  0.047009965248297 ]
    mass: 6.941000
    reduced_to: 121
  - symbol: Li # 165
    coordinates: [  0.207628845141094,  0.954362179475847,  0.047009965248297 ]
    mass: 6.941000
    reduced_to: 121
  - symbol: Li # 166
    coordinates: [  0.457628845141094,  0.154362179475847,  0.880343298581631 ]
    mass: 6.941000
    reduced_to: 121
  - symbol: Li # 167
    coordinates: [  0.457628845141094,  0.354362179475847,  0.880343298581631 ]
    mass: 6.941000
    reduced_to: 121
  - symbol: Li # 168
    coordinates: [  0.457628845141094,  0.554362179475847,  0.880343298581631 ]
    mass: 6.941000
    reduced_to: 121
  - symbol: Li # 169
    coordinates: [  0.457628845141094,  0.754362179475847,  0.880343298581631 ]
    mass: 6.941000
    reduced_to: 121
  - symbol: Li # 170
    coordinates: [  0.457628845141094,  0.954362179475847,  0.880343298581631 ]
    mass: 6.941000
    reduced_to: 121
  - symbol: Li # 171
    coordinates: [  0.707628845141094,  0.154362179475847,  0.713676631914964 ]
    mass: 6.941000
    reduced_to: 121
  - symbol: Li # 172
    coordinates: [  0.707628845141094,  0.354362179475847,  0.713676631914964 ]
    mass: 6.941000
    reduced_to: 121
  - symbol: Li # 173
    coordinates: [  0.707628845141094,  0.554362179475847,  0.713676631914964 ]
    mass: 6.941000
    reduced_to: 121
  - symbol: Li # 174
    coordinates: [  0.707628845141094,  0.754362179475847,  0.713676631914964 ]
    mass: 6.941000
    reduced_to: 121
  - symbol: Li # 175
    coordinates: [  0.707628845141094,  0.954362179475847,  0.713676631914964 ]
    mass: 6.941000
    reduced_to: 121
  - symbol: Li # 176
    coordinates: [  0.957628845141094,  0.154362179475847,  0.547009965248297 ]