phonopy:
  version: "2.27.0"
  frequency_unit_conversion_factor: 15.633302
  symmetry_tolerance: 1.00000e-04

space_group:
  type: "P2_13"
  number: 198
  Hall_symbol: "P 2ac 2ab 3"

primitive_matrix:
- [  1.000000000000000, -0.000000000000000,  0.000000000000000 ]
- [ -0.000000000000000,  1.000000000000000,  0.000000000000000 ]
- [  0.000000000000000,  0.000000000000000,  1.000000000000000 ]

supercell_matrix:
- [   2,   0,   0 ]
- [   0,   2,   0 ]
- [   0,   0,   2 ]

primitive_cell:
  lattice:
  - [    11.297443382223516,    -0.000000000000000,     0.000000000000001 ] # a
  - [    -0.000000000000001,    11.297443382223785,     0.000000000000020 ] # b
  - [    -0.000000000000007,    -0.000000000000000,    11.297443382223522 ] # c
  points:
  - symbol: Ga # 1
    coordinates: [  0.009719630192911,  0.009719630192911,  0.009719630192912 ]
    mass: 69.723000
  - symbol: Ga # 2
    coordinates: [  0.490280369807090,  0.990280369807089,  0.509719630192911 ]
    mass: 69.723000
  - symbol: Ga # 3
    coordinates: [  0.509719630192911,  0.490280369807089,  0.990280369807088 ]
    mass: 69.723000
  - symbol: Ga # 4
    coordinates: [  0.990280369807090,  0.509719630192911,  0.490280369807088 ]
    mass: 69.723000
  - symbol: Ag # 5
    coordinates: [  0.323442496195005,  0.569282010089600,  0.634616597197187 ]
    mass: 107.868200
  - symbol: Ag # 6
    coordinates: [  0.634616597197188,  0.323442496195005,  0.569282010089602 ]
    mass: 107.868200
  - symbol: Ag # 7
    coordinates: [  0.569282010089599,  0.634616597197189,  0.323442496195004 ]
    mass: 107.868200
  - symbol: Ag # 8
    coordinates: [  0.930717989910401,  0.365383402802811,  0.823442496195004 ]
    mass: 107.868200
  - symbol: Ag # 9
    coordinates: [  0.134616597197189,  0.176557503804995,  0.430717989910398 ]
    mass: 107.868200
  - symbol: Ag # 10
    coordinates: [  0.430717989910401,  0.134616597197189,  0.176557503804996 ]
    mass: 107.868200
  - symbol: Ag # 11
    coordinates: [  0.865383402802812,  0.676557503804995,  0.069282010089601 ]
    mass: 107.868200
  - symbol: Ag # 12
    coordinates: [  0.365383402802812,  0.823442496195005,  0.930717989910398 ]
    mass: 107.868200
  - symbol: Ag # 13
    coordinates: [  0.069282010089599,  0.865383402802811,  0.676557503804996 ]
    mass: 107.868200
  - symbol: Ag # 14
    coordinates: [  0.823442496195005,  0.930717989910400,  0.365383402802812 ]
    mass: 107.868200
  - symbol: Ag # 15
    coordinates: [  0.676557503804995,  0.069282010089600,  0.865383402802812 ]
    mass: 107.868200
  - symbol: Ag # 16
    coordinates: [  0.176557503804995,  0.430717989910400,  0.134616597197187 ]
    mass: 107.868200
  - symbol: Ag # 17
    coordinates: [  0.724804068781543,  0.731332432408829,  0.530327336471387 ]
    mass: 107.868200
  - symbol: Ag # 18
    coordinates: [  0.530327336471387,  0.724804068781542,  0.731332432408828 ]
    mass: 107.868200
  - symbol: Ag # 19
    coordinates: [  0.731332432408831,  0.530327336471388,  0.724804068781544 ]
    mass: 107.868200
  - symbol: Ag # 20
    coordinates: [  0.768667567591169,  0.469672663528613,  0.224804068781544 ]
    mass: 107.868200
  - symbol: Ag # 21
    coordinates: [  0.030327336471387,  0.775195931218458,  0.268667567591172 ]
    mass: 107.868200
  - symbol: Ag # 22
    coordinates: [  0.268667567591170,  0.030327336471388,  0.775195931218456 ]
    mass: 107.868200
  - symbol: Ag # 23
    coordinates: [  0.969672663528613,  0.275195931218458,  0.231332432408828 ]
    mass: 107.868200
  - symbol: Ag # 24
    coordinates: [  0.469672663528613,  0.224804068781542,  0.768667567591171 ]
    mass: 107.868200
  - symbol: Ag # 25
    coordinates: [  0.231332432408831,  0.969672663528613,  0.275195931218456 ]
    mass: 107.868200
  - symbol: Ag # 26
    coordinates: [  0.224804068781543,  0.768667567591171,  0.469672663528612 ]
    mass: 107.868200
  - symbol: Ag # 27
    coordinates: [  0.275195931218457,  0.231332432408829,  0.969672663528612 ]
    mass: 107.868200
  - symbol: Ag # 28
    coordinates: [  0.775195931218457,  0.268667567591171,  0.030327336471387 ]
    mass: 107.868200
  - symbol: Ag # 29
    coordinates: [  0.329246381161102,  0.539207105805157,  0.365376335928278 ]
    mass: 107.868200
  - symbol: Ag # 30
    coordinates: [  0.365376335928280,  0.329246381161103,  0.539207105805157 ]
    mass: 107.868200
  - symbol: Ag # 31
    coordinates: [  0.539207105805158,  0.365376335928278,  0.329246381161103 ]
    mass: 107.868200
  - symbol: Ag # 32
    coordinates: [  0.960792894194842,  0.634623664071722,  0.829246381161103 ]
    mass: 107.868200
  - symbol: Ag # 33
    coordinates: [  0.865376335928280,  0.170753618838898,  0.460792894194842 ]
    mass: 107.868200
  - symbol: Ag # 34
    coordinates: [  0.460792894194842,  0.865376335928278,  0.170753618838897 ]
    mass: 107.868200
  - symbol: Ag # 35
    coordinates: [  0.134623664071720,  0.670753618838897,  0.039207105805158 ]
    mass: 107.868200
  - symbol: Ag # 36
    coordinates: [  0.634623664071720,  0.829246381161103,  0.960792894194842 ]
    mass: 107.868200
  - symbol: Ag # 37
    coordinates: [  0.039207105805158,  0.134623664071723,  0.670753618838896 ]
    mass: 107.868200
  - symbol: Ag # 38
    coordinates: [  0.829246381161102,  0.960792894194843,  0.634623664071721 ]
    mass: 107.868200
  - symbol: Ag # 39
    coordinates: [  0.670753618838899,  0.039207105805157,  0.134623664071721 ]
    mass: 107.868200
  - symbol: Ag # 40
    coordinates: [  0.170753618838899,  0.460792894194843,  0.865376335928278 ]
    mass: 107.868200
  - symbol: Se # 41
    coordinates: [  0.522289907043005,  0.522289907043005,  0.522289907043004 ]
    mass: 78.960000
  - symbol: Se # 42
    coordinates: [  0.977710092956995,  0.477710092956996,  0.022289907043004 ]
    mass: 78.960000
  - symbol: Se # 43
    coordinates: [  0.022289907043005,  0.977710092956996,  0.477710092956995 ]
    mass: 78.960000
  - symbol: Se # 44
    coordinates: [  0.477710092956995,  0.022289907043005,  0.977710092956995 ]
    mass: 78.960000
  - symbol: Se # 45
    coordinates: [  0.132361999853360,  0.132361999853360,  0.132361999853360 ]
    mass: 78.960000
  - symbol: Se # 46
    coordinates: [  0.367638000146640,  0.867638000146641,  0.632361999853360 ]
    mass: 78.960000
  - symbol: Se # 47
    coordinates: [  0.632361999853360,  0.367638000146641,  0.867638000146639 ]
    mass: 78.960000
  - symbol: Se # 48
    coordinates: [  0.867638000146640,  0.632361999853360,  0.367638000146640 ]
    mass: 78.960000
  - symbol: Se # 49
    coordinates: [  0.762342898064936,  0.762342898064935,  0.762342898064935 ]
    mass: 78.960000
  - symbol: Se # 50
    coordinates: [  0.737657101935065,  0.237657101935065,  0.262342898064935 ]
    mass: 78.960000
  - symbol: Se # 51
    coordinates: [  0.262342898064936,  0.737657101935065,  0.237657101935064 ]
    mass: 78.960000
  - symbol: Se # 52
    coordinates: [  0.237657101935065,  0.262342898064935,  0.737657101935064 ]
    mass: 78.960000
  - symbol: Se # 53
    coordinates: [  0.900102922653357,  0.127334463843623,  0.866548652002584 ]
    mass: 78.960000
  - symbol: Se # 54
    coordinates: [  0.866548652002583,  0.900102922653356,  0.127334463843622 ]
    mass: 78.960000
  - symbol: Se # 55
    coordinates: [  0.127334463843623,  0.866548652002584,  0.900102922653358 ]
    mass: 78.960000
  - symbol: Se # 56
    coordinates: [  0.372665536156378,  0.133451347997417,  0.400102922653358 ]
    mass: 78.960000
  - symbol: Se # 57
    coordinates: [  0.366548652002583,  0.599897077346644,  0.872665536156377 ]
    mass: 78.960000
  - symbol: Se # 58
    coordinates: [  0.872665536156378,  0.366548652002584,  0.599897077346642 ]
    mass: 78.960000
  - symbol: Se # 59
    coordinates: [  0.633451347997417,  0.099897077346644,  0.627334463843622 ]
    mass: 78.960000
  - symbol: Se # 60
    coordinates: [  0.133451347997417,  0.400102922653356,  0.372665536156378 ]
    mass: 78.960000
  - symbol: Se # 61
    coordinates: [  0.627334463843623,  0.633451347997416,  0.099897077346642 ]
    mass: 78.960000
  - symbol: Se # 62
    coordinates: [  0.400102922653357,  0.372665536156377,  0.133451347997416 ]
    mass: 78.960000
  - symbol: Se # 63
    coordinates: [  0.099897077346643,  0.627334463843624,  0.633451347997416 ]
    mass: 78.960000
  - symbol: Se # 64
    coordinates: [  0.599897077346643,  0.872665536156377,  0.366548652002584 ]
    mass: 78.960000
  reciprocal_lattice: # without 2pi
  - [     0.088515601819567,     0.000000000000000,     0.000000000000000 ] # a*
  - [     0.000000000000000,     0.088515601819565,     0.000000000000000 ] # b*
  - [    -0.000000000000000,    -0.000000000000000,     0.088515601819567 ] # c*

unit_cell:
  lattice:
  - [    11.297443382223516,    -0.000000000000000,     0.000000000000001 ] # a
  - [    -0.000000000000001,    11.297443382223785,     0.000000000000020 ] # b
  - [    -0.000000000000007,    -0.000000000000000,    11.297443382223522 ] # c
  points:
  - symbol: Ga # 1
    coordinates: [  0.009719630192911,  0.009719630192911,  0.009719630192912 ]
    mass: 69.723000
    reduced_to: 1
  - symbol: Ga # 2
    coordinates: [  0.490280369807090,  0.990280369807089,  0.509719630192911 ]
    mass: 69.723000
    reduced_to: 2
  - symbol: Ga # 3
    coordinates: [  0.509719630192911,  0.490280369807089,  0.990280369807088 ]
    mass: 69.723000
    reduced_to: 3
  - symbol: Ga # 4
    coordinates: [  0.990280369807090,  0.509719630192911,  0.490280369807088 ]
    mass: 69.723000
    reduced_to: 4
  - symbol: Ag # 5
    coordinates: [  0.323442496195005,  0.569282010089600,  0.634616597197187 ]
    mass: 107.868200
    reduced_to: 5
  - symbol: Ag # 6
    coordinates: [  0.634616597197188,  0.323442496195005,  0.569282010089602 ]
    mass: 107.868200
    reduced_to: 6
  - symbol: Ag # 7
    coordinates: [  0.569282010089599,  0.634616597197189,  0.323442496195004 ]
    mass: 107.868200
    reduced_to: 7
  - symbol: Ag # 8
    coordinates: [  0.930717989910401,  0.365383402802811,  0.823442496195004 ]
    mass: 107.868200
    reduced_to: 8
  - symbol: Ag # 9
    coordinates: [  0.134616597197189,  0.176557503804995,  0.430717989910398 ]
    mass: 107.868200
    reduced_to: 9
  - symbol: Ag # 10
    coordinates: [  0.430717989910401,  0.134616597197189,  0.176557503804996 ]
    mass: 107.868200
    reduced_to: 10
  - symbol: Ag # 11
    coordinates: [  0.865383402802812,  0.676557503804995,  0.069282010089601 ]
    mass: 107.868200
    reduced_to: 11
  - symbol: Ag # 12
    coordinates: [  0.365383402802812,  0.823442496195005,  0.930717989910398 ]
    mass: 107.868200
    reduced_to: 12
  - symbol: Ag # 13
    coordinates: [  0.069282010089599,  0.865383402802811,  0.676557503804996 ]
    mass: 107.868200
    reduced_to: 13
  - symbol: Ag # 14
    coordinates: [  0.823442496195005,  0.930717989910400,  0.365383402802812 ]
    mass: 107.868200
    reduced_to: 14
  - symbol: Ag # 15
    coordinates: [  0.676557503804995,  0.069282010089600,  0.865383402802812 ]
    mass: 107.868200
    reduced_to: 15
  - symbol: Ag # 16
    coordinates: [  0.176557503804995,  0.430717989910400,  0.134616597197187 ]
    mass: 107.868200
    reduced_to: 16
  - symbol: Ag # 17
    coordinates: [  0.724804068781543,  0.731332432408829,  0.530327336471387 ]
    mass: 107.868200
    reduced_to: 17
  - symbol: Ag # 18
    coordinates: [  0.530327336471387,  0.724804068781542,  0.731332432408828 ]
    mass: 107.868200
    reduced_to: 18
  - symbol: Ag # 19
    coordinates: [  0.731332432408831,  0.530327336471388,  0.724804068781544 ]
    mass: 107.868200
    reduced_to: 19
  - symbol: Ag # 20
    coordinates: [  0.768667567591169,  0.469672663528613,  0.224804068781544 ]
    mass: 107.868200
    reduced_to: 20
  - symbol: Ag # 21
    coordinates: [  0.030327336471387,  0.775195931218458,  0.268667567591172 ]
    mass: 107.868200
    reduced_to: 21
  - symbol: Ag # 22
    coordinates: [  0.268667567591170,  0.030327336471388,  0.775195931218456 ]
    mass: 107.868200
    reduced_to: 22
  - symbol: Ag # 23
    coordinates: [  0.969672663528613,  0.275195931218458,  0.231332432408828 ]
    mass: 107.868200
    reduced_to: 23
  - symbol: Ag # 24
    coordinates: [  0.469672663528613,  0.224804068781542,  0.768667567591171 ]
    mass: 107.868200
    reduced_to: 24
  - symbol: Ag # 25
    coordinates: [  0.231332432408831,  0.969672663528613,  0.275195931218456 ]
    mass: 107.868200
    reduced_to: 25
  - symbol: Ag # 26
    coordinates: [  0.224804068781543,  0.768667567591171,  0.469672663528612 ]
    mass: 107.868200
    reduced_to: 26
  - symbol: Ag # 27
    coordinates: [  0.275195931218457,  0.231332432408829,  0.969672663528612 ]
    mass: 107.868200
    reduced_to: 27
  - symbol: Ag # 28
    coordinates: [  0.775195931218457,  0.268667567591171,  0.030327336471387 ]
    mass: 107.868200
    reduced_to: 28
  - symbol: Ag # 29
    coordinates: [  0.329246381161102,  0.539207105805157,  0.365376335928278 ]
    mass: 107.868200
    reduced_to: 29
  - symbol: Ag # 30
    coordinates: [  0.365376335928280,  0.329246381161103,  0.539207105805157 ]
    mass: 107.868200
    reduced_to: 30
  - symbol: Ag # 31
    coordinates: [  0.539207105805158,  0.365376335928278,  0.329246381161103 ]
    mass: 107.868200
    reduced_to: 31
  - symbol: Ag # 32
    coordinates: [  0.960792894194842,  0.634623664071722,  0.829246381161103 ]
    mass: 107.868200
    reduced_to: 32
  - symbol: Ag # 33
    coordinates: [  0.865376335928280,  0.170753618838898,  0.460792894194842 ]
    mass: 107.868200
    reduced_to: 33
  - symbol: Ag # 34
    coordinates: [  0.460792894194842,  0.865376335928278,  0.170753618838897 ]
    mass: 107.868200
    reduced_to: 34
  - symbol: Ag # 35
    coordinates: [  0.134623664071720,  0.670753618838897,  0.039207105805158 ]
    mass: 107.868200
    reduced_to: 35
  - symbol: Ag # 36
    coordinates: [  0.634623664071720,  0.829246381161103,  0.960792894194842 ]
    mass: 107.868200
    reduced_to: 36
  - symbol: Ag # 37
    coordinates: [  0.039207105805158,  0.134623664071723,  0.670753618838896 ]
    mass: 107.868200
    reduced_to: 37
  - symbol: Ag # 38
    coordinates: [  0.829246381161102,  0.960792894194843,  0.634623664071721 ]
    mass: 107.868200
    reduced_to: 38
  - symbol: Ag # 39
    coordinates: [  0.670753618838899,  0.039207105805157,  0.134623664071721 ]
    mass: 107.868200
    reduced_to: 39
  - symbol: Ag # 40
    coordinates: [  0.170753618838899,  0.460792894194843,  0.865376335928278 ]
    mass: 107.868200
    reduced_to: 40
  - symbol: Se # 41
    coordinates: [  0.522289907043005,  0.522289907043005,  0.522289907043004 ]
    mass: 78.960000
    reduced_to: 41
  - symbol: Se # 42
    coordinates: [  0.977710092956995,  0.477710092956996,  0.022289907043004 ]
    mass: 78.960000
    reduced_to: 42
  - symbol: Se # 43
    coordinates: [  0.022289907043005,  0.977710092956996,  0.477710092956995 ]
    mass: 78.960000
    reduced_to: 43
  - symbol: Se # 44
    coordinates: [  0.477710092956995,  0.022289907043005,  0.977710092956995 ]
    mass: 78.960000
    reduced_to: 44
  - symbol: Se # 45
    coordinates: [  0.132361999853360,  0.132361999853360,  0.132361999853360 ]
    mass: 78.960000
    reduced_to: 45
  - symbol: Se # 46
    coordinates: [  0.367638000146640,  0.867638000146641,  0.632361999853360 ]
    mass: 78.960000
    reduced_to: 46
  - symbol: Se # 47
    coordinates: [  0.632361999853360,  0.367638000146641,  0.867638000146639 ]
    mass: 78.960000
    reduced_to: 47
  - symbol: Se # 48
    coordinates: [  0.867638000146640,  0.632361999853360,  0.367638000146640 ]
    mass: 78.960000
    reduced_to: 48
  - symbol: Se # 49
    coordinates: [  0.762342898064936,  0.762342898064935,  0.762342898064935 ]
    mass: 78.960000
    reduced_to: 49
  - symbol: Se # 50
    coordinates: [  0.737657101935065,  0.237657101935065,  0.262342898064935 ]
    mass: 78.960000
    reduced_to: 50
  - symbol: Se # 51
    coordinates: [  0.262342898064936,  0.737657101935065,  0.237657101935064 ]
    mass: 78.960000
    reduced_to: 51
  - symbol: Se # 52
    coordinates: [  0.237657101935065,  0.262342898064935,  0.737657101935064 ]
    mass: 78.960000
    reduced_to: 52
  - symbol: Se # 53
    coordinates: [  0.900102922653357,  0.127334463843623,  0.866548652002584 ]
    mass: 78.960000
    reduced_to: 53
  - symbol: Se # 54
    coordinates: [  0.866548652002583,  0.900102922653356,  0.127334463843622 ]
    mass: 78.960000
    reduced_to: 54
  - symbol: Se # 55
    coordinates: [  0.127334463843623,  0.866548652002584,  0.900102922653358 ]
    mass: 78.960000
    reduced_to: 55
  - symbol: Se # 56
    coordinates: [  0.372665536156378,  0.133451347997417,  0.400102922653358 ]
    mass: 78.960000
    reduced_to: 56
  - symbol: Se # 57
    coordinates: [  0.366548652002583,  0.599897077346644,  0.872665536156377 ]
    mass: 78.960000
    reduced_to: 57
  - symbol: Se # 58
    coordinates: [  0.872665536156378,  0.366548652002584,  0.599897077346642 ]
    mass: 78.960000
    reduced_to: 58
  - symbol: Se # 59
    coordinates: [  0.633451347997417,  0.099897077346644,  0.627334463843622 ]
    mass: 78.960000
    reduced_to: 59
  - symbol: Se # 60
    coordinates: [  0.133451347997417,  0.400102922653356,  0.372665536156378 ]
    mass: 78.960000
    reduced_to: 60
  - symbol: Se # 61
    coordinates: [  0.627334463843623,  0.633451347997416,  0.099897077346642 ]
    mass: 78.960000
    reduced_to: 61
  - symbol: Se # 62
    coordinates: [  0.400102922653357,  0.372665536156377,  0.133451347997416 ]
    mass: 78.960000
    reduced_to: 62
  - symbol: Se # 63
    coordinates: [  0.099897077346643,  0.627334463843624,  0.633451347997416 ]
    mass: 78.960000
    reduced_to: 63
  - symbol: Se # 64
    coordinates: [  0.599897077346643,  0.872665536156377,  0.366548652002584 ]
    mass: 78.960000
    reduced_to: 64

supercell:
  lattice:
  - [    22.594886764447033,    -0.000000000000000,     0.000000000000001 ] # a
  - [    -0.000000000000002,    22.594886764447569,     0.000000000000040 ] # b
  - [    -0.000000000000014,    -0.000000000000001,    22.594886764447043 ] # c
  points:
  - symbol: Ga # 1
    coordinates: [  0.004859815096456,  0.004859815096456,  0.004859815096456 ]
    mass: 69.723000
    reduced_to: 1
  - symbol: Ga # 2
    coordinates: [  0.504859815096456,  0.004859815096456,  0.004859815096456 ]
    mass: 69.723000
    reduced_to: 1
  - symbol: Ga # 3
    coordinates: [  0.004859815096456,  0.504859815096456,  0.004859815096456 ]
    mass: 69.723000
    reduced_to: 1
  - symbol: Ga # 4
    coordinates: [  0.504859815096456,  0.504859815096456,  0.004859815096456 ]
    mass: 69.723000
    reduced_to: 1
  - symbol: Ga # 5
    coordinates: [  0.004859815096456,  0.004859815096456,  0.504859815096456 ]
    mass: 69.723000
    reduced_to: 1
  - symbol: Ga # 6
    coordinates: [  0.504859815096456,  0.004859815096456,  0.504859815096456 ]
    mass: 69.723000
    reduced_to: 1
  - symbol: Ga # 7
    coordinates: [  0.004859815096456,  0.504859815096456,  0.504859815096456 ]
    mass: 69.723000
    reduced_to: 1
  - symbol: Ga # 8
    coordinates: [  0.504859815096456,  0.504859815096456,  0.504859815096456 ]
    mass: 69.723000
    reduced_to: 1
  - symbol: Ga # 9
    coordinates: [  0.245140184903545,  0.495140184903544,  0.254859815096456 ]
    mass: 69.723000
    reduced_to: 9
  - symbol: Ga # 10
    coordinates: [  0.745140184903545,  0.495140184903544,  0.254859815096456 ]
    mass: 69.723000
    reduced_to: 9
  - symbol: Ga # 11
    coordinates: [  0.245140184903545,  0.995140184903544,  0.254859815096456 ]
    mass: 69.723000
    reduced_to: 9
  - symbol: Ga # 12
    coordinates: [  0.745140184903545,  0.995140184903544,  0.254859815096456 ]
    mass: 69.723000
    reduced_to: 9
  - symbol: Ga # 13
    coordinates: [  0.245140184903545,  0.495140184903544,  0.754859815096456 ]
    mass: 69.723000
    reduced_to: 9
  - symbol: Ga # 14
    coordinates: [  0.745140184903545,  0.495140184903544,  0.754859815096456 ]
    mass: 69.723000
    reduced_to: 9
  - symbol: Ga # 15
    coordinates: [  0.245140184903545,  0.995140184903544,  0.754859815096456 ]
    mass: 69.723000
    reduced_to: 9
  - symbol: Ga # 16
    coordinates: [  0.745140184903545,  0.995140184903544,  0.754859815096456 ]
    mass: 69.723000
    reduced_to: 9
  - symbol: Ga # 17
    coordinates: [  0.254859815096456,  0.245140184903545,  0.495140184903544 ]
    mass: 69.723000
    reduced_to: 17
  - symbol: Ga # 18
    coordinates: [  0.754859815096456,  0.245140184903545,  0.495140184903544 ]
    mass: 69.723000
    reduced_to: 17
  - symbol: Ga # 19
    coordinates: [  0.254859815096456,  0.745140184903545,  0.495140184903544 ]
    mass: 69.723000
    reduced_to: 17
  - symbol: Ga # 20
    coordinates: [  0.754859815096456,  0.745140184903545,  0.495140184903544 ]
    mass: 69.723000
    reduced_to: 17
  - symbol: Ga # 21
    coordinates: [  0.254859815096456,  0.245140184903545,  0.995140184903544 ]
    mass: 69.723000
    reduced_to: 17
  - symbol: Ga # 22
    coordinates: [  0.754859815096456,  0.245140184903545,  0.995140184903544 ]
    mass: 69.723000
    reduced_to: 17
  - symbol: Ga # 23
    coordinates: [  0.254859815096456,  0.745140184903545,  0.995140184903544 ]
    mass: 69.723000
    reduced_to: 17
  - symbol: Ga # 24
    coordinates: [  0.754859815096456,  0.745140184903545,  0.995140184903544 ]
    mass: 69.723000
    reduced_to: 17
  - symbol: Ga # 25
    coordinates: [  0.495140184903545,  0.254859815096456,  0.245140184903544 ]
    mass: 69.723000
    reduced_to: 25
  - symbol: Ga # 26
    coordinates: [  0.995140184903545,  0.254859815096456,  0.245140184903544 ]
    mass: 69.723000
    reduced_to: 25
  - symbol: Ga # 27
    coordinates: [  0.495140184903545,  0.754859815096456,  0.245140184903544 ]
    mass: 69.723000
    reduced_to: 25
  - symbol: Ga # 28
    coordinates: [  0.995140184903545,  0.754859815096456,  0.245140184903544 ]
    mass: 69.723000
    reduced_to: 25
  - symbol: Ga # 29
    coordinates: [  0.495140184903545,  0.254859815096456,  0.745140184903544 ]
    mass: 69.723000
    reduced_to: 25
  - symbol: Ga # 30
    coordinates: [  0.995140184903545,  0.254859815096456,  0.745140184903544 ]
    mass: 69.723000
    reduced_to: 25
  - symbol: Ga # 31
    coordinates: [  0.495140184903545,  0.754859815096456,  0.745140184903544 ]
    mass: 69.723000
    reduced_to: 25
  - symbol: Ga # 32
    coordinates: [  0.995140184903545,  0.754859815096456,  0.745140184903544 ]
    mass: 69.723000
    reduced_to: 25
  - symbol: Ag # 33
    coordinates: [  0.161721248097503,  0.284641005044800,  0.317308298598594 ]
    mass: 107.868200
    reduced_to: 33
  - symbol: Ag # 34
    coordinates: [  0.661721248097503,  0.284641005044800,  0.317308298598594 ]
    mass: 107.868200
    reduced_to: 33
  - symbol: Ag # 35
    coordinates: [  0.161721248097503,  0.784641005044800,  0.317308298598594 ]
    mass: 107.868200
    reduced_to: 33
  - symbol: Ag # 36
    coordinates: [  0.661721248097503,  0.784641005044800,  0.317308298598594 ]
    mass: 107.868200
    reduced_to: 33
  - symbol: Ag # 37
    coordinates: [  0.161721248097503,  0.284641005044800,  0.817308298598594 ]
    mass: 107.868200
    reduced_to: 33
  - symbol: Ag # 38
    coordinates: [  0.661721248097503,  0.284641005044800,  0.817308298598594 ]
    mass: 107.868200
    reduced_to: 33
  - symbol: Ag # 39
    coordinates: [  0.161721248097503,  0.784641005044800,  0.817308298598594 ]
    mass: 107.868200
    reduced_to: 33
  - symbol: Ag # 40
    coordinates: [  0.661721248097503,  0.784641005044800,  0.817308298598594 ]
    mass: 107.868200
    reduced_to: 33
  - symbol: Ag # 41
    coordinates: [  0.317308298598594,  0.161721248097503,  0.284641005044801 ]
    mass: 107.868200
    reduced_to: 41
  - symbol: Ag # 42
    coordinates: [  0.817308298598594,  0.161721248097503,  0.284641005044801 ]
    mass: 107.868200
    reduced_to: 41
  - symbol: Ag # 43
    coordinates: [  0.317308298598594,  0.661721248097503,  0.284641005044801 ]
    mass: 107.868200
    reduced_to: 41
  - symbol: Ag # 44
    coordinates: [  0.817308298598594,  0.661721248097503,  0.284641005044801 ]
    mass: 107.868200
    reduced_to: 41
  - symbol: Ag # 45
    coordinates: [  0.317308298598594,  0.161721248097503,  0.784641005044801 ]
    mass: 107.868200
    reduced_to: 41
  - symbol: Ag # 46
    coordinates: [  0.817308298598594,  0.161721248097503,  0.784641005044801 ]
    mass: 107.868200
    reduced_to: 41
  - symbol: Ag # 47
    coordinates: [  0.317308298598594,  0.661721248097503,  0.784641005044801 ]
    mass: 107.868200
    reduced_to: 41
  - symbol: Ag # 48
    coordinates: [  0.817308298598594,  0.661721248097503,  0.784641005044801 ]
    mass: 107.868200
    reduced_to: 41
  - symbol: Ag # 49
    coordinates: [  0.284641005044800,  0.317308298598594,  0.161721248097502 ]
    mass: 107.868200
    reduced_to: 49
  - symbol: Ag # 50
    coordinates: [  0.784641005044800,  0.317308298598594,  0.161721248097502 ]
    mass: 107.868200
    reduced_to: 49
  - symbol: Ag # 51
    coordinates: [  0.284641005044800,  0.817308298598594,  0.161721248097502 ]
    mass: 107.868200
    reduced_to: 49
  - symbol: Ag # 52
    coordinates: [  0.784641005044800,  0.817308298598594,  0.161721248097502 ]
    mass: 107.868200
    reduced_to: 49
  - symbol: Ag # 53
    coordinates: [  0.284641005044800,  0.317308298598594,  0.661721248097502 ]
    mass: 107.868200
    reduced_to: 49
  - symbol: Ag # 54
    coordinates: [  0.784641005044800,  0.317308298598594,  0.661721248097502 ]
    mass: 107.868200
    reduced_to: 49
  - symbol: Ag # 55
    coordinates: [  0.284641005044800,  0.817308298598594,  0.661721248097502 ]
    mass: 107.868200
    reduced_to: 49
  - symbol: Ag # 56
    coordinates: [  0.784641005044800,  0.817308298598594,  0.661721248097502 ]
    mass: 107.868200
    reduced_to: 49
  - symbol: Ag # 57
    coordinates: [  0.465358994955201,  0.182691701401406,  0.411721248097502 ]
    mass: 107.868200
    reduced_to: 57
  - symbol: Ag # 58
    coordinates: [  0.965358994955201,  0.182691701401406,  0.411721248097502 ]
    mass: 107.868200
    reduced_to: 57
  - symbol: Ag # 59
    coordinates: [  0.465358994955201,  0.682691701401406,  0.411721248097502 ]
    mass: 107.868200
    reduced_to: 57
  - symbol: Ag # 60
    coordinates: [  0.965358994955201,  0.682691701401406,  0.411721248097502 ]
    mass: 107.868200
    reduced_to: 57
  - symbol: Ag # 61
    coordinates: [  0.465358994955201,  0.182691701401406,  0.911721248097502 ]
    mass: 107.868200
    reduced_to: 57
  - symbol: Ag # 62
    coordinates: [  0.965358994955201,  0.182691701401406,  0.911721248097502 ]
    mass: 107.868200
    reduced_to: 57
  - symbol: Ag # 63
    coordinates: [  0.465358994955201,  0.682691701401406,  0.911721248097502 ]
    mass: 107.868200
    reduced_to: 57
  - symbol: Ag # 64
    coordinates: [  0.965358994955201,  0.682691701401406,  0.911721248097502 ]
    mass: 107.868200
    reduced_to: 57
  - symbol: Ag # 65
    coordinates: [  0.067308298598594,  0.088278751902497,  0.215358994955199 ]
    mass: 107.868200
    reduced_to: 65
  - symbol: Ag # 66
    coordinates: [  0.567308298598594,  0.088278751902497,  0.215358994955199 ]
    mass: 107.868200
    reduced_to: 65
  - symbol: Ag # 67
    coordinates: [  0.067308298598594,  0.588278751902497,  0.215358994955199 ]
    mass: 107.868200
    reduced_to: 65
  - symbol: Ag # 68
    coordinates: [  0.567308298598594,  0.588278751902497,  0.215358994955199 ]
    mass: 107.868200
    reduced_to: 65
  - symbol: Ag # 69
    coordinates: [  0.067308298598594,  0.088278751902497,  0.715358994955199 ]
    mass: 107.868200
    reduced_to: 65
  - symbol: Ag # 70
    coordinates: [  0.567308298598594,  0.088278751902497,  0.715358994955199 ]
    mass: 107.868200
    reduced_to: 65
  - symbol: Ag # 71
    coordinates: [  0.067308298598594,  0.588278751902497,  0.715358994955199 ]
    mass: 107.868200
    reduced_to: 65
  - symbol: Ag # 72
    coordinates: [  0.567308298598594,  0.588278751902497,  0.715358994955199 ]
    mass: 107.868200
    reduced_to: 65
  - symbol: Ag # 73
    coordinates: [  0.215358994955201,  0.067308298598594,  0.088278751902498 ]
    mass: 107.868200
    reduced_to: 73
  - symbol: Ag # 74
    coordinates: [  0.715358994955201,  0.067308298598594,  0.088278751902498 ]
    mass: 107.868200
    reduced_to: 73
  - symbol: Ag # 75
    coordinates: [  0.215358994955201,  0.567308298598594,  0.088278751902498 ]
    mass: 107.868200
    reduced_to: 73
  - symbol: Ag # 76
    coordinates: [  0.715358994955201,  0.567308298598594,  0.088278751902498 ]
    mass: 107.868200
    reduced_to: 73
  - symbol: Ag # 77
    coordinates: [  0.215358994955201,  0.067308298598594,  0.588278751902498 ]
    mass: 107.868200
    reduced_to: 73
  - symbol: Ag # 78
    coordinates: [  0.715358994955201,  0.067308298598594,  0.588278751902498 ]
    mass: 107.868200
    reduced_to: 73
  - symbol: Ag # 79
    coordinates: [  0.215358994955201,  0.567308298598594,  0.588278751902498 ]
    mass: 107.868200
    reduced_to: 73
  - symbol: Ag # 80
    coordinates: [  0.715358994955201,  0.567308298598594,  0.588278751902498 ]
    mass: 107.868200
    reduced_to: 73
  - symbol: Ag # 81
    coordinates: [  0.432691701401406,  0.338278751902497,  0.034641005044801 ]
    mass: 107.868200
    reduced_to: 81
  - symbol: Ag # 82
    coordinates: [  0.932691701401406,  0.338278751902497,  0.034641005044801 ]
    mass: 107.868200
    reduced_to: 81
  - symbol: Ag # 83
    coordinates: [  0.432691701401406,  0.838278751902497,  0.034641005044801 ]
    mass: 107.868200
    reduced_to: 81
  - symbol: Ag # 84
    coordinates: [  0.932691701401406,  0.838278751902497,  0.034641005044801 ]
    mass: 107.868200
    reduced_to: 81
  - symbol: Ag # 85