phonopy:
  version: "2.27.0"
  frequency_unit_conversion_factor: 15.633302
  symmetry_tolerance: 1.00000e-03

space_group:
  type: "P2_13"
  number: 198
  Hall_symbol: "P 2ac 2ab 3"

primitive_matrix:
- [  1.000000000000000,  0.000000000000000, -0.000000000000000 ]
- [ -0.000000000000000,  1.000000000000000,  0.000000000000000 ]
- [  0.000000000000000,  0.000000000000000,  1.000000000000000 ]

supercell_matrix:
- [   2,   0,   0 ]
- [   0,   2,   0 ]
- [   0,   0,   2 ]

primitive_cell:
  lattice:
  - [    11.297443382223859,    -0.000000000000000,     0.000000000000001 ] # a
  - [    -0.000000000000000,    11.297443382223063,     0.000000000000076 ] # b
  - [    -0.000000000000000,     0.000000000000066,    11.297443382223667 ] # c
  points:
  - symbol: Ga # 1
    coordinates: [  0.009719630192909,  0.009719630192914,  0.009719630192911 ]
    mass: 69.723000
  - symbol: Ga # 2
    coordinates: [  0.490280369807091,  0.990280369807087,  0.509719630192911 ]
    mass: 69.723000
  - symbol: Ga # 3
    coordinates: [  0.509719630192908,  0.490280369807086,  0.990280369807089 ]
    mass: 69.723000
  - symbol: Ga # 4
    coordinates: [  0.990280369807091,  0.509719630192912,  0.490280369807089 ]
    mass: 69.723000
  - symbol: Ag # 5
    coordinates: [  0.323442496195007,  0.569282010089602,  0.634616597197186 ]
    mass: 107.868200
  - symbol: Ag # 6
    coordinates: [  0.634616597197191,  0.323442496195008,  0.569282010089597 ]
    mass: 107.868200
  - symbol: Ag # 7
    coordinates: [  0.569282010089592,  0.634616597197191,  0.323442496194998 ]
    mass: 107.868200
  - symbol: Ag # 8
    coordinates: [  0.930717989910406,  0.365383402802812,  0.823442496195001 ]
    mass: 107.868200
  - symbol: Ag # 9
    coordinates: [  0.134616597197191,  0.176557503804992,  0.430717989910402 ]
    mass: 107.868200
  - symbol: Ag # 10
    coordinates: [  0.430717989910406,  0.134616597197187,  0.176557503804998 ]
    mass: 107.868200
  - symbol: Ag # 11
    coordinates: [  0.865383402802809,  0.676557503804992,  0.069282010089597 ]
    mass: 107.868200
  - symbol: Ag # 12
    coordinates: [  0.365383402802810,  0.823442496195008,  0.930717989910402 ]
    mass: 107.868200
  - symbol: Ag # 13
    coordinates: [  0.069282010089592,  0.865383402802809,  0.676557503805001 ]
    mass: 107.868200
  - symbol: Ag # 14
    coordinates: [  0.823442496195007,  0.930717989910397,  0.365383402802813 ]
    mass: 107.868200
  - symbol: Ag # 15
    coordinates: [  0.676557503804994,  0.069282010089605,  0.865383402802815 ]
    mass: 107.868200
  - symbol: Ag # 16
    coordinates: [  0.176557503804994,  0.430717989910395,  0.134616597197185 ]
    mass: 107.868200
  - symbol: Ag # 17
    coordinates: [  0.724804068781539,  0.731332432408828,  0.530327336471386 ]
    mass: 107.868200
  - symbol: Ag # 18
    coordinates: [  0.530327336471390,  0.724804068781540,  0.731332432408827 ]
    mass: 107.868200
  - symbol: Ag # 19
    coordinates: [  0.731332432408832,  0.530327336471382,  0.724804068781546 ]
    mass: 107.868200
  - symbol: Ag # 20
    coordinates: [  0.768667567591168,  0.469672663528619,  0.224804068781548 ]
    mass: 107.868200
  - symbol: Ag # 21
    coordinates: [  0.030327336471389,  0.775195931218460,  0.268667567591173 ]
    mass: 107.868200
  - symbol: Ag # 22
    coordinates: [  0.268667567591168,  0.030327336471381,  0.775195931218452 ]
    mass: 107.868200
  - symbol: Ag # 23
    coordinates: [  0.969672663528610,  0.275195931218460,  0.231332432408826 ]
    mass: 107.868200
  - symbol: Ag # 24
    coordinates: [  0.469672663528610,  0.224804068781540,  0.768667567591173 ]
    mass: 107.868200
  - symbol: Ag # 25
    coordinates: [  0.231332432408832,  0.969672663528618,  0.275195931218454 ]
    mass: 107.868200
  - symbol: Ag # 26
    coordinates: [  0.224804068781539,  0.768667567591172,  0.469672663528613 ]
    mass: 107.868200
  - symbol: Ag # 27
    coordinates: [  0.275195931218460,  0.231332432408828,  0.969672663528613 ]
    mass: 107.868200
  - symbol: Ag # 28
    coordinates: [  0.775195931218460,  0.268667567591171,  0.030327336471387 ]
    mass: 107.868200
  - symbol: Ag # 29
    coordinates: [  0.329246381161104,  0.539207105805151,  0.365376335928282 ]
    mass: 107.868200
  - symbol: Ag # 30
    coordinates: [  0.365376335928284,  0.329246381161100,  0.539207105805163 ]
    mass: 107.868200
  - symbol: Ag # 31
    coordinates: [  0.539207105805159,  0.365376335928269,  0.329246381161100 ]
    mass: 107.868200
  - symbol: Ag # 32
    coordinates: [  0.960792894194840,  0.634623664071732,  0.829246381161099 ]
    mass: 107.868200
  - symbol: Ag # 33
    coordinates: [  0.865376335928283,  0.170753618838900,  0.460792894194837 ]
    mass: 107.868200
  - symbol: Ag # 34
    coordinates: [  0.460792894194840,  0.865376335928267,  0.170753618838901 ]
    mass: 107.868200
  - symbol: Ag # 35
    coordinates: [  0.134623664071716,  0.670753618838900,  0.039207105805163 ]
    mass: 107.868200
  - symbol: Ag # 36
    coordinates: [  0.634623664071716,  0.829246381161100,  0.960792894194836 ]
    mass: 107.868200
  - symbol: Ag # 37
    coordinates: [  0.039207105805159,  0.134623664071730,  0.670753618838899 ]
    mass: 107.868200
  - symbol: Ag # 38
    coordinates: [  0.829246381161104,  0.960792894194848,  0.634623664071717 ]
    mass: 107.868200
  - symbol: Ag # 39
    coordinates: [  0.670753618838895,  0.039207105805150,  0.134623664071721 ]
    mass: 107.868200
  - symbol: Ag # 40
    coordinates: [  0.170753618838895,  0.460792894194849,  0.865376335928279 ]
    mass: 107.868200
  - symbol: Se # 41
    coordinates: [  0.522289907043001,  0.522289907043008,  0.522289907043001 ]
    mass: 78.960000
  - symbol: Se # 42
    coordinates: [  0.977710092956999,  0.477710092956992,  0.022289907043001 ]
    mass: 78.960000
  - symbol: Se # 43
    coordinates: [  0.022289907043002,  0.977710092956991,  0.477710092956999 ]
    mass: 78.960000
  - symbol: Se # 44
    coordinates: [  0.477710092956999,  0.022289907043008,  0.977710092956998 ]
    mass: 78.960000
  - symbol: Se # 45
    coordinates: [  0.132361999853357,  0.132361999853364,  0.132361999853357 ]
    mass: 78.960000
  - symbol: Se # 46
    coordinates: [  0.367638000146642,  0.867638000146635,  0.632361999853356 ]
    mass: 78.960000
  - symbol: Se # 47
    coordinates: [  0.632361999853357,  0.367638000146635,  0.867638000146643 ]
    mass: 78.960000
  - symbol: Se # 48
    coordinates: [  0.867638000146642,  0.632361999853364,  0.367638000146644 ]
    mass: 78.960000
  - symbol: Se # 49
    coordinates: [  0.762342898064930,  0.762342898064938,  0.762342898064934 ]
    mass: 78.960000
  - symbol: Se # 50
    coordinates: [  0.737657101935069,  0.237657101935062,  0.262342898064934 ]
    mass: 78.960000
  - symbol: Se # 51
    coordinates: [  0.262342898064930,  0.737657101935062,  0.237657101935066 ]
    mass: 78.960000
  - symbol: Se # 52
    coordinates: [  0.237657101935069,  0.262342898064938,  0.737657101935065 ]
    mass: 78.960000
  - symbol: Se # 53
    coordinates: [  0.900102922653352,  0.127334463843618,  0.866548652002578 ]
    mass: 78.960000
  - symbol: Se # 54
    coordinates: [  0.866548652002587,  0.900102922653359,  0.127334463843626 ]
    mass: 78.960000
  - symbol: Se # 55
    coordinates: [  0.127334463843623,  0.866548652002585,  0.900102922653358 ]
    mass: 78.960000
  - symbol: Se # 56
    coordinates: [  0.372665536156377,  0.133451347997417,  0.400102922653356 ]
    mass: 78.960000
  - symbol: Se # 57
    coordinates: [  0.366548652002586,  0.599897077346641,  0.872665536156373 ]
    mass: 78.960000
  - symbol: Se # 58
    coordinates: [  0.872665536156377,  0.366548652002583,  0.599897077346644 ]
    mass: 78.960000
  - symbol: Se # 59
    coordinates: [  0.633451347997413,  0.099897077346640,  0.627334463843627 ]
    mass: 78.960000
  - symbol: Se # 60
    coordinates: [  0.133451347997413,  0.400102922653360,  0.372665536156373 ]
    mass: 78.960000
  - symbol: Se # 61
    coordinates: [  0.627334463843623,  0.633451347997414,  0.099897077346642 ]
    mass: 78.960000
  - symbol: Se # 62
    coordinates: [  0.400102922653352,  0.372665536156382,  0.133451347997421 ]
    mass: 78.960000
  - symbol: Se # 63
    coordinates: [  0.099897077346648,  0.627334463843615,  0.633451347997420 ]
    mass: 78.960000
  - symbol: Se # 64
    coordinates: [  0.599897077346648,  0.872665536156384,  0.366548652002579 ]
    mass: 78.960000
  reciprocal_lattice: # without 2pi
  - [     0.088515601819564,     0.000000000000000,     0.000000000000000 ] # a*
  - [     0.000000000000000,     0.088515601819571,    -0.000000000000001 ] # b*
  - [    -0.000000000000000,    -0.000000000000001,     0.088515601819566 ] # c*

unit_cell:
  lattice:
  - [    11.297443382223859,    -0.000000000000000,     0.000000000000001 ] # a
  - [    -0.000000000000000,    11.297443382223062,     0.000000000000076 ] # b
  - [    -0.000000000000000,     0.000000000000066,    11.297443382223666 ] # c
  points:
  - symbol: Ga # 1
    coordinates: [  0.009719630192909,  0.009719630192914,  0.009719630192911 ]
    mass: 69.723000
    reduced_to: 1
  - symbol: Ga # 2
    coordinates: [  0.490280369807091,  0.990280369807088,  0.509719630192911 ]
    mass: 69.723000
    reduced_to: 2
  - symbol: Ga # 3
    coordinates: [  0.509719630192908,  0.490280369807086,  0.990280369807089 ]
    mass: 69.723000
    reduced_to: 3
  - symbol: Ga # 4
    coordinates: [  0.990280369807091,  0.509719630192912,  0.490280369807089 ]
    mass: 69.723000
    reduced_to: 4
  - symbol: Ag # 5
    coordinates: [  0.323442496195007,  0.569282010089602,  0.634616597197186 ]
    mass: 107.868200
    reduced_to: 5
  - symbol: Ag # 6
    coordinates: [  0.634616597197191,  0.323442496195008,  0.569282010089597 ]
    mass: 107.868200
    reduced_to: 6
  - symbol: Ag # 7
    coordinates: [  0.569282010089592,  0.634616597197191,  0.323442496194998 ]
    mass: 107.868200
    reduced_to: 7
  - symbol: Ag # 8
    coordinates: [  0.930717989910406,  0.365383402802812,  0.823442496195002 ]
    mass: 107.868200
    reduced_to: 8
  - symbol: Ag # 9
    coordinates: [  0.134616597197191,  0.176557503804992,  0.430717989910402 ]
    mass: 107.868200
    reduced_to: 9
  - symbol: Ag # 10
    coordinates: [  0.430717989910406,  0.134616597197187,  0.176557503804998 ]
    mass: 107.868200
    reduced_to: 10
  - symbol: Ag # 11
    coordinates: [  0.865383402802809,  0.676557503804992,  0.069282010089597 ]
    mass: 107.868200
    reduced_to: 11
  - symbol: Ag # 12
    coordinates: [  0.365383402802810,  0.823442496195008,  0.930717989910402 ]
    mass: 107.868200
    reduced_to: 12
  - symbol: Ag # 13
    coordinates: [  0.069282010089592,  0.865383402802809,  0.676557503805001 ]
    mass: 107.868200
    reduced_to: 13
  - symbol: Ag # 14
    coordinates: [  0.823442496195007,  0.930717989910398,  0.365383402802813 ]
    mass: 107.868200
    reduced_to: 14
  - symbol: Ag # 15
    coordinates: [  0.676557503804994,  0.069282010089605,  0.865383402802815 ]
    mass: 107.868200
    reduced_to: 15
  - symbol: Ag # 16
    coordinates: [  0.176557503804994,  0.430717989910395,  0.134616597197185 ]
    mass: 107.868200
    reduced_to: 16
  - symbol: Ag # 17
    coordinates: [  0.724804068781539,  0.731332432408828,  0.530327336471386 ]
    mass: 107.868200
    reduced_to: 17
  - symbol: Ag # 18
    coordinates: [  0.530327336471390,  0.724804068781540,  0.731332432408827 ]
    mass: 107.868200
    reduced_to: 18
  - symbol: Ag # 19
    coordinates: [  0.731332432408832,  0.530327336471382,  0.724804068781546 ]
    mass: 107.868200
    reduced_to: 19
  - symbol: Ag # 20
    coordinates: [  0.768667567591168,  0.469672663528619,  0.224804068781548 ]
    mass: 107.868200
    reduced_to: 20
  - symbol: Ag # 21
    coordinates: [  0.030327336471389,  0.775195931218460,  0.268667567591173 ]
    mass: 107.868200
    reduced_to: 21
  - symbol: Ag # 22
    coordinates: [  0.268667567591168,  0.030327336471381,  0.775195931218452 ]
    mass: 107.868200
    reduced_to: 22
  - symbol: Ag # 23
    coordinates: [  0.969672663528610,  0.275195931218460,  0.231332432408826 ]
    mass: 107.868200
    reduced_to: 23
  - symbol: Ag # 24
    coordinates: [  0.469672663528610,  0.224804068781540,  0.768667567591173 ]
    mass: 107.868200
    reduced_to: 24
  - symbol: Ag # 25
    coordinates: [  0.231332432408832,  0.969672663528618,  0.275195931218454 ]
    mass: 107.868200
    reduced_to: 25
  - symbol: Ag # 26
    coordinates: [  0.224804068781539,  0.768667567591172,  0.469672663528613 ]
    mass: 107.868200
    reduced_to: 26
  - symbol: Ag # 27
    coordinates: [  0.275195931218460,  0.231332432408828,  0.969672663528613 ]
    mass: 107.868200
    reduced_to: 27
  - symbol: Ag # 28
    coordinates: [  0.775195931218460,  0.268667567591171,  0.030327336471387 ]
    mass: 107.868200
    reduced_to: 28
  - symbol: Ag # 29
    coordinates: [  0.329246381161104,  0.539207105805152,  0.365376335928282 ]
    mass: 107.868200
    reduced_to: 29
  - symbol: Ag # 30
    coordinates: [  0.365376335928284,  0.329246381161100,  0.539207105805163 ]
    mass: 107.868200
    reduced_to: 30
  - symbol: Ag # 31
    coordinates: [  0.539207105805159,  0.365376335928269,  0.329246381161100 ]
    mass: 107.868200
    reduced_to: 31
  - symbol: Ag # 32
    coordinates: [  0.960792894194840,  0.634623664071732,  0.829246381161099 ]
    mass: 107.868200
    reduced_to: 32
  - symbol: Ag # 33
    coordinates: [  0.865376335928283,  0.170753618838900,  0.460792894194837 ]
    mass: 107.868200
    reduced_to: 33
  - symbol: Ag # 34
    coordinates: [  0.460792894194840,  0.865376335928267,  0.170753618838901 ]
    mass: 107.868200
    reduced_to: 34
  - symbol: Ag # 35
    coordinates: [  0.134623664071716,  0.670753618838900,  0.039207105805163 ]
    mass: 107.868200
    reduced_to: 35
  - symbol: Ag # 36
    coordinates: [  0.634623664071716,  0.829246381161100,  0.960792894194836 ]
    mass: 107.868200
    reduced_to: 36
  - symbol: Ag # 37
    coordinates: [  0.039207105805159,  0.134623664071731,  0.670753618838900 ]
    mass: 107.868200
    reduced_to: 37
  - symbol: Ag # 38
    coordinates: [  0.829246381161104,  0.960792894194848,  0.634623664071717 ]
    mass: 107.868200
    reduced_to: 38
  - symbol: Ag # 39
    coordinates: [  0.670753618838895,  0.039207105805150,  0.134623664071721 ]
    mass: 107.868200
    reduced_to: 39
  - symbol: Ag # 40
    coordinates: [  0.170753618838895,  0.460792894194849,  0.865376335928279 ]
    mass: 107.868200
    reduced_to: 40
  - symbol: Se # 41
    coordinates: [  0.522289907043001,  0.522289907043009,  0.522289907043001 ]
    mass: 78.960000
    reduced_to: 41
  - symbol: Se # 42
    coordinates: [  0.977710092956999,  0.477710092956992,  0.022289907043001 ]
    mass: 78.960000
    reduced_to: 42
  - symbol: Se # 43
    coordinates: [  0.022289907043002,  0.977710092956992,  0.477710092956999 ]
    mass: 78.960000
    reduced_to: 43
  - symbol: Se # 44
    coordinates: [  0.477710092956999,  0.022289907043008,  0.977710092956998 ]
    mass: 78.960000
    reduced_to: 44
  - symbol: Se # 45
    coordinates: [  0.132361999853357,  0.132361999853364,  0.132361999853357 ]
    mass: 78.960000
    reduced_to: 45
  - symbol: Se # 46
    coordinates: [  0.367638000146642,  0.867638000146635,  0.632361999853356 ]
    mass: 78.960000
    reduced_to: 46
  - symbol: Se # 47
    coordinates: [  0.632361999853357,  0.367638000146635,  0.867638000146643 ]
    mass: 78.960000
    reduced_to: 47
  - symbol: Se # 48
    coordinates: [  0.867638000146642,  0.632361999853364,  0.367638000146644 ]
    mass: 78.960000
    reduced_to: 48
  - symbol: Se # 49
    coordinates: [  0.762342898064930,  0.762342898064938,  0.762342898064934 ]
    mass: 78.960000
    reduced_to: 49
  - symbol: Se # 50
    coordinates: [  0.737657101935069,  0.237657101935062,  0.262342898064935 ]
    mass: 78.960000
    reduced_to: 50
  - symbol: Se # 51
    coordinates: [  0.262342898064930,  0.737657101935062,  0.237657101935066 ]
    mass: 78.960000
    reduced_to: 51
  - symbol: Se # 52
    coordinates: [  0.237657101935069,  0.262342898064938,  0.737657101935065 ]
    mass: 78.960000
    reduced_to: 52
  - symbol: Se # 53
    coordinates: [  0.900102922653352,  0.127334463843618,  0.866548652002579 ]
    mass: 78.960000
    reduced_to: 53
  - symbol: Se # 54
    coordinates: [  0.866548652002587,  0.900102922653359,  0.127334463843626 ]
    mass: 78.960000
    reduced_to: 54
  - symbol: Se # 55
    coordinates: [  0.127334463843623,  0.866548652002585,  0.900102922653358 ]
    mass: 78.960000
    reduced_to: 55
  - symbol: Se # 56
    coordinates: [  0.372665536156377,  0.133451347997417,  0.400102922653356 ]
    mass: 78.960000
    reduced_to: 56
  - symbol: Se # 57
    coordinates: [  0.366548652002586,  0.599897077346641,  0.872665536156373 ]
    mass: 78.960000
    reduced_to: 57
  - symbol: Se # 58
    coordinates: [  0.872665536156377,  0.366548652002583,  0.599897077346644 ]
    mass: 78.960000
    reduced_to: 58
  - symbol: Se # 59
    coordinates: [  0.633451347997413,  0.099897077346640,  0.627334463843627 ]
    mass: 78.960000
    reduced_to: 59
  - symbol: Se # 60
    coordinates: [  0.133451347997413,  0.400102922653360,  0.372665536156373 ]
    mass: 78.960000
    reduced_to: 60
  - symbol: Se # 61
    coordinates: [  0.627334463843623,  0.633451347997415,  0.099897077346642 ]
    mass: 78.960000
    reduced_to: 61
  - symbol: Se # 62
    coordinates: [  0.400102922653352,  0.372665536156382,  0.133451347997421 ]
    mass: 78.960000
    reduced_to: 62
  - symbol: Se # 63
    coordinates: [  0.099897077346648,  0.627334463843615,  0.633451347997420 ]
    mass: 78.960000
    reduced_to: 63
  - symbol: Se # 64
    coordinates: [  0.599897077346648,  0.872665536156385,  0.366548652002579 ]
    mass: 78.960000
    reduced_to: 64

supercell:
  lattice:
  - [    22.594886764447718,    -0.000000000000000,     0.000000000000001 ] # a
  - [    -0.000000000000001,    22.594886764446123,     0.000000000000151 ] # b
  - [    -0.000000000000000,     0.000000000000132,    22.594886764447331 ] # c
  points:
  - symbol: Ga # 1
    coordinates: [  0.004859815096454,  0.004859815096457,  0.004859815096456 ]
    mass: 69.723000
    reduced_to: 1
  - symbol: Ga # 2
    coordinates: [  0.504859815096454,  0.004859815096457,  0.004859815096456 ]
    mass: 69.723000
    reduced_to: 1
  - symbol: Ga # 3
    coordinates: [  0.004859815096454,  0.504859815096457,  0.004859815096456 ]
    mass: 69.723000
    reduced_to: 1
  - symbol: Ga # 4
    coordinates: [  0.504859815096454,  0.504859815096457,  0.004859815096456 ]
    mass: 69.723000
    reduced_to: 1
  - symbol: Ga # 5
    coordinates: [  0.004859815096454,  0.004859815096457,  0.504859815096456 ]
    mass: 69.723000
    reduced_to: 1
  - symbol: Ga # 6
    coordinates: [  0.504859815096454,  0.004859815096457,  0.504859815096456 ]
    mass: 69.723000
    reduced_to: 1
  - symbol: Ga # 7
    coordinates: [  0.004859815096454,  0.504859815096457,  0.504859815096456 ]
    mass: 69.723000
    reduced_to: 1
  - symbol: Ga # 8
    coordinates: [  0.504859815096454,  0.504859815096457,  0.504859815096456 ]
    mass: 69.723000
    reduced_to: 1
  - symbol: Ga # 9
    coordinates: [  0.245140184903546,  0.495140184903544,  0.254859815096455 ]
    mass: 69.723000
    reduced_to: 9
  - symbol: Ga # 10
    coordinates: [  0.745140184903546,  0.495140184903544,  0.254859815096455 ]
    mass: 69.723000
    reduced_to: 9
  - symbol: Ga # 11
    coordinates: [  0.245140184903546,  0.995140184903544,  0.254859815096455 ]
    mass: 69.723000
    reduced_to: 9
  - symbol: Ga # 12
    coordinates: [  0.745140184903546,  0.995140184903544,  0.254859815096455 ]
    mass: 69.723000
    reduced_to: 9
  - symbol: Ga # 13
    coordinates: [  0.245140184903546,  0.495140184903544,  0.754859815096455 ]
    mass: 69.723000
    reduced_to: 9
  - symbol: Ga # 14
    coordinates: [  0.745140184903546,  0.495140184903544,  0.754859815096455 ]
    mass: 69.723000
    reduced_to: 9
  - symbol: Ga # 15
    coordinates: [  0.245140184903546,  0.995140184903544,  0.754859815096455 ]
    mass: 69.723000
    reduced_to: 9
  - symbol: Ga # 16
    coordinates: [  0.745140184903546,  0.995140184903544,  0.754859815096455 ]
    mass: 69.723000
    reduced_to: 9
  - symbol: Ga # 17
    coordinates: [  0.254859815096454,  0.245140184903543,  0.495140184903544 ]
    mass: 69.723000
    reduced_to: 17
  - symbol: Ga # 18
    coordinates: [  0.754859815096454,  0.245140184903543,  0.495140184903544 ]
    mass: 69.723000
    reduced_to: 17
  - symbol: Ga # 19
    coordinates: [  0.254859815096454,  0.745140184903543,  0.495140184903544 ]
    mass: 69.723000
    reduced_to: 17
  - symbol: Ga # 20
    coordinates: [  0.754859815096454,  0.745140184903543,  0.495140184903544 ]
    mass: 69.723000
    reduced_to: 17
  - symbol: Ga # 21
    coordinates: [  0.254859815096454,  0.245140184903543,  0.995140184903544 ]
    mass: 69.723000
    reduced_to: 17
  - symbol: Ga # 22
    coordinates: [  0.754859815096454,  0.245140184903543,  0.995140184903544 ]
    mass: 69.723000
    reduced_to: 17
  - symbol: Ga # 23
    coordinates: [  0.254859815096454,  0.745140184903543,  0.995140184903544 ]
    mass: 69.723000
    reduced_to: 17
  - symbol: Ga # 24
    coordinates: [  0.754859815096454,  0.745140184903543,  0.995140184903544 ]
    mass: 69.723000
    reduced_to: 17
  - symbol: Ga # 25
    coordinates: [  0.495140184903546,  0.254859815096456,  0.245140184903545 ]
    mass: 69.723000
    reduced_to: 25
  - symbol: Ga # 26
    coordinates: [  0.995140184903546,  0.254859815096456,  0.245140184903545 ]
    mass: 69.723000
    reduced_to: 25
  - symbol: Ga # 27
    coordinates: [  0.495140184903546,  0.754859815096456,  0.245140184903545 ]
    mass: 69.723000
    reduced_to: 25
  - symbol: Ga # 28
    coordinates: [  0.995140184903546,  0.754859815096456,  0.245140184903545 ]
    mass: 69.723000
    reduced_to: 25
  - symbol: Ga # 29
    coordinates: [  0.495140184903546,  0.254859815096456,  0.745140184903545 ]
    mass: 69.723000
    reduced_to: 25
  - symbol: Ga # 30
    coordinates: [  0.995140184903546,  0.254859815096456,  0.745140184903545 ]
    mass: 69.723000
    reduced_to: 25
  - symbol: Ga # 31
    coordinates: [  0.495140184903546,  0.754859815096456,  0.745140184903545 ]
    mass: 69.723000
    reduced_to: 25
  - symbol: Ga # 32
    coordinates: [  0.995140184903546,  0.754859815096456,  0.745140184903545 ]
    mass: 69.723000
    reduced_to: 25
  - symbol: Ag # 33
    coordinates: [  0.161721248097504,  0.284641005044801,  0.317308298598593 ]
    mass: 107.868200
    reduced_to: 33
  - symbol: Ag # 34
    coordinates: [  0.661721248097504,  0.284641005044801,  0.317308298598593 ]
    mass: 107.868200
    reduced_to: 33
  - symbol: Ag # 35
    coordinates: [  0.161721248097504,  0.784641005044801,  0.317308298598593 ]
    mass: 107.868200
    reduced_to: 33
  - symbol: Ag # 36
    coordinates: [  0.661721248097504,  0.784641005044801,  0.317308298598593 ]
    mass: 107.868200
    reduced_to: 33
  - symbol: Ag # 37
    coordinates: [  0.161721248097504,  0.284641005044801,  0.817308298598593 ]
    mass: 107.868200
    reduced_to: 33
  - symbol: Ag # 38
    coordinates: [  0.661721248097504,  0.284641005044801,  0.817308298598593 ]
    mass: 107.868200
    reduced_to: 33
  - symbol: Ag # 39
    coordinates: [  0.161721248097504,  0.784641005044801,  0.817308298598593 ]
    mass: 107.868200
    reduced_to: 33
  - symbol: Ag # 40
    coordinates: [  0.661721248097504,  0.784641005044801,  0.817308298598593 ]
    mass: 107.868200
    reduced_to: 33
  - symbol: Ag # 41
    coordinates: [  0.317308298598595,  0.161721248097504,  0.284641005044799 ]
    mass: 107.868200
    reduced_to: 41
  - symbol: Ag # 42
    coordinates: [  0.817308298598595,  0.161721248097504,  0.284641005044799 ]
    mass: 107.868200
    reduced_to: 41
  - symbol: Ag # 43
    coordinates: [  0.317308298598595,  0.661721248097504,  0.284641005044799 ]
    mass: 107.868200
    reduced_to: 41
  - symbol: Ag # 44
    coordinates: [  0.817308298598595,  0.661721248097504,  0.284641005044799 ]
    mass: 107.868200
    reduced_to: 41
  - symbol: Ag # 45
    coordinates: [  0.317308298598595,  0.161721248097504,  0.784641005044799 ]
    mass: 107.868200
    reduced_to: 41
  - symbol: Ag # 46
    coordinates: [  0.817308298598595,  0.161721248097504,  0.784641005044799 ]
    mass: 107.868200
    reduced_to: 41
  - symbol: Ag # 47
    coordinates: [  0.317308298598595,  0.661721248097504,  0.784641005044799 ]
    mass: 107.868200
    reduced_to: 41
  - symbol: Ag # 48
    coordinates: [  0.817308298598595,  0.661721248097504,  0.784641005044799 ]
    mass: 107.868200
    reduced_to: 41
  - symbol: Ag # 49
    coordinates: [  0.284641005044796,  0.317308298598595,  0.161721248097499 ]
    mass: 107.868200
    reduced_to: 49
  - symbol: Ag # 50
    coordinates: [  0.784641005044796,  0.317308298598595,  0.161721248097499 ]
    mass: 107.868200
    reduced_to: 49
  - symbol: Ag # 51
    coordinates: [  0.284641005044796,  0.817308298598596,  0.161721248097499 ]
    mass: 107.868200
    reduced_to: 49
  - symbol: Ag # 52
    coordinates: [  0.784641005044796,  0.817308298598596,  0.161721248097499 ]
    mass: 107.868200
    reduced_to: 49
  - symbol: Ag # 53
    coordinates: [  0.284641005044796,  0.317308298598595,  0.661721248097499 ]
    mass: 107.868200
    reduced_to: 49
  - symbol: Ag # 54
    coordinates: [  0.784641005044796,  0.317308298598595,  0.661721248097499 ]
    mass: 107.868200
    reduced_to: 49
  - symbol: Ag # 55
    coordinates: [  0.284641005044796,  0.817308298598596,  0.661721248097499 ]
    mass: 107.868200
    reduced_to: 49
  - symbol: Ag # 56
    coordinates: [  0.784641005044796,  0.817308298598596,  0.661721248097499 ]
    mass: 107.868200
    reduced_to: 49
  - symbol: Ag # 57
    coordinates: [  0.465358994955203,  0.182691701401406,  0.411721248097501 ]
    mass: 107.868200
    reduced_to: 57
  - symbol: Ag # 58
    coordinates: [  0.965358994955203,  0.182691701401406,  0.411721248097501 ]
    mass: 107.868200
    reduced_to: 57
  - symbol: Ag # 59
    coordinates: [  0.465358994955203,  0.682691701401406,  0.411721248097501 ]
    mass: 107.868200
    reduced_to: 57
  - symbol: Ag # 60
    coordinates: [  0.965358994955203,  0.682691701401406,  0.411721248097501 ]
    mass: 107.868200
    reduced_to: 57
  - symbol: Ag # 61
    coordinates: [  0.465358994955203,  0.182691701401406,  0.911721248097501 ]
    mass: 107.868200
    reduced_to: 57
  - symbol: Ag # 62
    coordinates: [  0.965358994955203,  0.182691701401406,  0.911721248097501 ]
    mass: 107.868200
    reduced_to: 57
  - symbol: Ag # 63
    coordinates: [  0.465358994955203,  0.682691701401406,  0.911721248097501 ]
    mass: 107.868200
    reduced_to: 57
  - symbol: Ag # 64
    coordinates: [  0.965358994955203,  0.682691701401406,  0.911721248097501 ]
    mass: 107.868200
    reduced_to: 57
  - symbol: Ag # 65
    coordinates: [  0.067308298598595,  0.088278751902496,  0.215358994955201 ]
    mass: 107.868200
    reduced_to: 65
  - symbol: Ag # 66
    coordinates: [  0.567308298598595,  0.088278751902496,  0.215358994955201 ]
    mass: 107.868200
    reduced_to: 65
  - symbol: Ag # 67
    coordinates: [  0.067308298598595,  0.588278751902496,  0.215358994955201 ]
    mass: 107.868200
    reduced_to: 65
  - symbol: Ag # 68
    coordinates: [  0.567308298598595,  0.588278751902496,  0.215358994955201 ]
    mass: 107.868200
    reduced_to: 65
  - symbol: Ag # 69
    coordinates: [  0.067308298598595,  0.088278751902496,  0.715358994955201 ]
    mass: 107.868200
    reduced_to: 65
  - symbol: Ag # 70
    coordinates: [  0.567308298598595,  0.088278751902496,  0.715358994955201 ]
    mass: 107.868200
    reduced_to: 65
  - symbol: Ag # 71
    coordinates: [  0.067308298598595,  0.588278751902496,  0.715358994955201 ]
    mass: 107.868200
    reduced_to: 65
  - symbol: Ag # 72
    coordinates: [  0.567308298598595,  0.588278751902496,  0.715358994955201 ]
    mass: 107.868200
    reduced_to: 65
  - symbol: Ag # 73
    coordinates: [  0.215358994955203,  0.067308298598594,  0.088278751902499 ]
    mass: 107.868200
    reduced_to: 73
  - symbol: Ag # 74
    coordinates: [  0.715358994955203,  0.067308298598594,  0.088278751902499 ]
    mass: 107.868200
    reduced_to: 73
  - symbol: Ag # 75
    coordinates: [  0.215358994955203,  0.567308298598594,  0.088278751902499 ]
    mass: 107.868200
    reduced_to: 73
  - symbol: Ag # 76
    coordinates: [  0.715358994955203,  0.567308298598594,  0.088278751902499 ]
    mass: 107.868200
    reduced_to: 73
  - symbol: Ag # 77
    coordinates: [  0.215358994955203,  0.067308298598594,  0.588278751902499 ]
    mass: 107.868200
    reduced_to: 73
  - symbol: Ag # 78
    coordinates: [  0.715358994955203,  0.067308298598594,  0.588278751902499 ]
    mass: 107.868200
    reduced_to: 73
  - symbol: Ag # 79
    coordinates: [  0.215358994955203,  0.567308298598594,  0.588278751902499 ]
    mass: 107.868200
    reduced_to: 73
  - symbol: Ag # 80
    coordinates: [  0.715358994955203,  0.567308298598594,  0.588278751902499 ]
    mass: 107.868200
    reduced_to: 73
  - symbol: Ag # 81
    coordinates: [  0.432691701401405,  0.338278751902496,  0.034641005044799 ]
    mass: 107.868200
    reduced_to: 81
  - symbol: Ag # 82
    coordinates: [  0.932691701401405,  0.338278751902496,  0.034641005044799 ]
    mass: 107.868200
    reduced_to: 81
  - symbol: Ag # 83
    coordinates: [  0.432691701401405,  0.838278751902496,  0.034641005044799 ]
    mass: 107.868200
    reduced_to: 81
  - symbol: Ag # 84
    coordinates: [  0.932691701401405,  0.838278751902496,  0.034641005044799 ]
    mass: 107.868200
    reduced_to: 81
  - symbol: Ag # 85