phonopy:
  version: "2.27.0"
  frequency_unit_conversion_factor: 15.633302
  symmetry_tolerance: 1.00000e-04

space_group:
  type: "P-3m1"
  number: 164
  Hall_symbol: "-P 3 2\""

primitive_matrix:
- [  1.000000000000000,  0.000000000000000, -0.000000000000000 ]
- [ -0.000000000000000,  1.000000000000000,  0.000000000000000 ]
- [ -0.000000000000000,  0.000000000000000,  1.000000000000000 ]

supercell_matrix:
- [   5,   5,   0 ]
- [  -3,   3,   0 ]
- [   0,   0,   1 ]

primitive_cell:
  lattice:
  - [     2.176674581506052,    -3.770110966712228,     0.000000000000004 ] # a
  - [     2.176674581506051,     3.770110966712228,    -0.000000000000004 ] # b
  - [     0.000000000000001,    -0.000000000000019,    24.593211171851433 ] # c
  points:
  - symbol: Sb # 1
    coordinates: [  0.000000000000003,  0.000000000000000,  0.133090058535844 ]
    mass: 121.760000
  - symbol: Sb # 2
    coordinates: [  0.000000000000002,  0.000000000000001,  0.866909941464152 ]
    mass: 121.760000
  - symbol: Sb # 3
    coordinates: [  0.333333333333337,  0.666666666666667,  0.294012864303853 ]
    mass: 121.760000
  - symbol: Sb # 4
    coordinates: [  0.666666666666670,  0.333333333333334,  0.705987135696142 ]
    mass: 121.760000
  - symbol: Sb # 5
    coordinates: [  0.333333333333337,  0.666666666666667,  0.531522356412498 ]
    mass: 121.760000
  - symbol: Sb # 6
    coordinates: [  0.666666666666670,  0.333333333333334,  0.468477643587498 ]
    mass: 121.760000
  - symbol: Te # 7
    coordinates: [  0.333333333333337,  0.666666666666667,  0.064476324127925 ]
    mass: 127.600000
  - symbol: Te # 8
    coordinates: [  0.666666666666669,  0.333333333333334,  0.935523675872071 ]
    mass: 127.600000
  - symbol: Te # 9
    coordinates: [  0.333333333333337,  0.666666666666667,  0.786126735956264 ]
    mass: 127.600000
  - symbol: Te # 10
    coordinates: [  0.666666666666670,  0.333333333333334,  0.213873264043732 ]
    mass: 127.600000
  - symbol: Te # 11
    coordinates: [  0.000000000000003,  0.000000000000000,  0.363569664253769 ]
    mass: 127.600000
  - symbol: Te # 12
    coordinates: [  0.000000000000003,  0.000000000000001,  0.636430335746227 ]
    mass: 127.600000
  reciprocal_lattice: # without 2pi
  - [     0.229708199952447,    -0.132622091077609,    -0.000000000000000 ] # a*
  - [     0.229708199952447,     0.132622091077609,     0.000000000000000 ] # b*
  - [     0.000000000000000,     0.000000000000000,     0.040661627837546 ] # c*

unit_cell:
  lattice:
  - [     2.176674581506052,    -3.770110966712228,     0.000000000000004 ] # a
  - [     2.176674581506052,     3.770110966712228,    -0.000000000000004 ] # b
  - [     0.000000000000001,    -0.000000000000019,    24.593211171851426 ] # c
  points:
  - symbol: Sb # 1
    coordinates: [  0.000000000000003,  0.000000000000000,  0.133090058535844 ]
    mass: 121.760000
    reduced_to: 1
  - symbol: Sb # 2
    coordinates: [  0.000000000000002,  0.000000000000001,  0.866909941464153 ]
    mass: 121.760000
    reduced_to: 2
  - symbol: Sb # 3
    coordinates: [  0.333333333333337,  0.666666666666666,  0.294012864303854 ]
    mass: 121.760000
    reduced_to: 3
  - symbol: Sb # 4
    coordinates: [  0.666666666666670,  0.333333333333334,  0.705987135696142 ]
    mass: 121.760000
    reduced_to: 4
  - symbol: Sb # 5
    coordinates: [  0.333333333333337,  0.666666666666667,  0.531522356412498 ]
    mass: 121.760000
    reduced_to: 5
  - symbol: Sb # 6
    coordinates: [  0.666666666666670,  0.333333333333334,  0.468477643587498 ]
    mass: 121.760000
    reduced_to: 6
  - symbol: Te # 7
    coordinates: [  0.333333333333337,  0.666666666666667,  0.064476324127925 ]
    mass: 127.600000
    reduced_to: 7
  - symbol: Te # 8
    coordinates: [  0.666666666666669,  0.333333333333334,  0.935523675872071 ]
    mass: 127.600000
    reduced_to: 8
  - symbol: Te # 9
    coordinates: [  0.333333333333337,  0.666666666666667,  0.786126735956264 ]
    mass: 127.600000
    reduced_to: 9
  - symbol: Te # 10
    coordinates: [  0.666666666666670,  0.333333333333334,  0.213873264043732 ]
    mass: 127.600000
    reduced_to: 10
  - symbol: Te # 11
    coordinates: [  0.000000000000003,  0.000000000000000,  0.363569664253769 ]
    mass: 127.600000
    reduced_to: 11
  - symbol: Te # 12
    coordinates: [  0.000000000000003,  0.000000000000001,  0.636430335746227 ]
    mass: 127.600000
    reduced_to: 12

supercell:
  lattice:
  - [     4.353349163012108,   -30.160887733697827,     0.000000000000031 ] # a
  - [    17.413396652048416,    -7.540221933424455,     0.000000000000008 ] # b
  - [     0.000000000000001,    -0.000000000000019,    24.593211171851426 ] # c
  points:
  - symbol: Sb # 1
    coordinates: [  0.000000000000000,  0.000000000000000,  0.133090058535844 ]
    mass: 121.760000
    reduced_to: 1
  - symbol: Sb # 2
    coordinates: [  0.100000000000000,  0.100000000000000,  0.133090058535844 ]
    mass: 121.760000
    reduced_to: 1
  - symbol: Sb # 3
    coordinates: [  0.200000000000000,  0.200000000000000,  0.133090058535844 ]
    mass: 121.760000
    reduced_to: 1
  - symbol: Sb # 4
    coordinates: [  0.300000000000000,  0.300000000000000,  0.133090058535844 ]
    mass: 121.760000
    reduced_to: 1
  - symbol: Sb # 5
    coordinates: [  0.400000000000000,  0.400000000000000,  0.133090058535844 ]
    mass: 121.760000
    reduced_to: 1
  - symbol: Sb # 6
    coordinates: [  0.500000000000000,  0.500000000000000,  0.133090058535844 ]
    mass: 121.760000
    reduced_to: 1
  - symbol: Sb # 7
    coordinates: [  0.600000000000000,  0.600000000000000,  0.133090058535844 ]
    mass: 121.760000
    reduced_to: 1
  - symbol: Sb # 8
    coordinates: [  0.700000000000000,  0.700000000000000,  0.133090058535844 ]
    mass: 121.760000
    reduced_to: 1
  - symbol: Sb # 9
    coordinates: [  0.800000000000000,  0.800000000000000,  0.133090058535844 ]
    mass: 121.760000
    reduced_to: 1
  - symbol: Sb # 10
    coordinates: [  0.900000000000000,  0.900000000000000,  0.133090058535844 ]
    mass: 121.760000
    reduced_to: 1
  - symbol: Sb # 11
    coordinates: [  0.833333333333334,  0.166666666666667,  0.133090058535844 ]
    mass: 121.760000
    reduced_to: 1
  - symbol: Sb # 12
    coordinates: [  0.933333333333334,  0.266666666666667,  0.133090058535844 ]
    mass: 121.760000
    reduced_to: 1
  - symbol: Sb # 13
    coordinates: [  0.033333333333334,  0.366666666666667,  0.133090058535844 ]
    mass: 121.760000
    reduced_to: 1
  - symbol: Sb # 14
    coordinates: [  0.133333333333334,  0.466666666666667,  0.133090058535844 ]
    mass: 121.760000
    reduced_to: 1
  - symbol: Sb # 15
    coordinates: [  0.233333333333334,  0.566666666666667,  0.133090058535844 ]
    mass: 121.760000
    reduced_to: 1
  - symbol: Sb # 16
    coordinates: [  0.333333333333334,  0.666666666666667,  0.133090058535844 ]
    mass: 121.760000
    reduced_to: 1
  - symbol: Sb # 17
    coordinates: [  0.433333333333334,  0.766666666666667,  0.133090058535844 ]
    mass: 121.760000
    reduced_to: 1
  - symbol: Sb # 18
    coordinates: [  0.533333333333334,  0.866666666666667,  0.133090058535844 ]
    mass: 121.760000
    reduced_to: 1
  - symbol: Sb # 19
    coordinates: [  0.633333333333334,  0.966666666666667,  0.133090058535844 ]
    mass: 121.760000
    reduced_to: 1
  - symbol: Sb # 20
    coordinates: [  0.733333333333334,  0.066666666666667,  0.133090058535844 ]
    mass: 121.760000
    reduced_to: 1
  - symbol: Sb # 21
    coordinates: [  0.666666666666667,  0.333333333333334,  0.133090058535844 ]
    mass: 121.760000
    reduced_to: 1
  - symbol: Sb # 22
    coordinates: [  0.766666666666667,  0.433333333333334,  0.133090058535844 ]
    mass: 121.760000
    reduced_to: 1
  - symbol: Sb # 23
    coordinates: [  0.866666666666667,  0.533333333333334,  0.133090058535844 ]
    mass: 121.760000
    reduced_to: 1
  - symbol: Sb # 24
    coordinates: [  0.966666666666667,  0.633333333333334,  0.133090058535844 ]
    mass: 121.760000
    reduced_to: 1
  - symbol: Sb # 25
    coordinates: [  0.066666666666667,  0.733333333333334,  0.133090058535844 ]
    mass: 121.760000
    reduced_to: 1
  - symbol: Sb # 26
    coordinates: [  0.166666666666667,  0.833333333333334,  0.133090058535844 ]
    mass: 121.760000
    reduced_to: 1
  - symbol: Sb # 27
    coordinates: [  0.266666666666667,  0.933333333333334,  0.133090058535844 ]
    mass: 121.760000
    reduced_to: 1
  - symbol: Sb # 28
    coordinates: [  0.366666666666667,  0.033333333333334,  0.133090058535844 ]
    mass: 121.760000
    reduced_to: 1
  - symbol: Sb # 29
    coordinates: [  0.466666666666667,  0.133333333333334,  0.133090058535844 ]
    mass: 121.760000
    reduced_to: 1
  - symbol: Sb # 30
    coordinates: [  0.566666666666667,  0.233333333333334,  0.133090058535844 ]
    mass: 121.760000
    reduced_to: 1
  - symbol: Sb # 31
    coordinates: [  0.000000000000000,  0.000000000000000,  0.866909941464153 ]
    mass: 121.760000
    reduced_to: 31
  - symbol: Sb # 32
    coordinates: [  0.100000000000000,  0.100000000000000,  0.866909941464153 ]
    mass: 121.760000
    reduced_to: 31
  - symbol: Sb # 33
    coordinates: [  0.200000000000000,  0.200000000000000,  0.866909941464153 ]
    mass: 121.760000
    reduced_to: 31
  - symbol: Sb # 34
    coordinates: [  0.300000000000000,  0.300000000000000,  0.866909941464153 ]
    mass: 121.760000
    reduced_to: 31
  - symbol: Sb # 35
    coordinates: [  0.400000000000000,  0.400000000000000,  0.866909941464153 ]
    mass: 121.760000
    reduced_to: 31
  - symbol: Sb # 36
    coordinates: [  0.500000000000000,  0.500000000000000,  0.866909941464153 ]
    mass: 121.760000
    reduced_to: 31
  - symbol: Sb # 37
    coordinates: [  0.600000000000000,  0.600000000000000,  0.866909941464153 ]
    mass: 121.760000
    reduced_to: 31
  - symbol: Sb # 38
    coordinates: [  0.700000000000000,  0.700000000000000,  0.866909941464153 ]
    mass: 121.760000
    reduced_to: 31
  - symbol: Sb # 39
    coordinates: [  0.800000000000000,  0.800000000000000,  0.866909941464153 ]
    mass: 121.760000
    reduced_to: 31
  - symbol: Sb # 40
    coordinates: [  0.900000000000000,  0.900000000000000,  0.866909941464153 ]
    mass: 121.760000
    reduced_to: 31
  - symbol: Sb # 41
    coordinates: [  0.833333333333333,  0.166666666666667,  0.866909941464153 ]
    mass: 121.760000
    reduced_to: 31
  - symbol: Sb # 42
    coordinates: [  0.933333333333333,  0.266666666666667,  0.866909941464153 ]
    mass: 121.760000
    reduced_to: 31
  - symbol: Sb # 43
    coordinates: [  0.033333333333334,  0.366666666666667,  0.866909941464153 ]
    mass: 121.760000
    reduced_to: 31
  - symbol: Sb # 44
    coordinates: [  0.133333333333333,  0.466666666666667,  0.866909941464153 ]
    mass: 121.760000
    reduced_to: 31
  - symbol: Sb # 45
    coordinates: [  0.233333333333334,  0.566666666666667,  0.866909941464153 ]
    mass: 121.760000
    reduced_to: 31
  - symbol: Sb # 46
    coordinates: [  0.333333333333334,  0.666666666666667,  0.866909941464153 ]
    mass: 121.760000
    reduced_to: 31
  - symbol: Sb # 47
    coordinates: [  0.433333333333334,  0.766666666666667,  0.866909941464153 ]
    mass: 121.760000
    reduced_to: 31
  - symbol: Sb # 48
    coordinates: [  0.533333333333334,  0.866666666666667,  0.866909941464153 ]
    mass: 121.760000
    reduced_to: 31
  - symbol: Sb # 49
    coordinates: [  0.633333333333334,  0.966666666666667,  0.866909941464153 ]
    mass: 121.760000
    reduced_to: 31
  - symbol: Sb # 50
    coordinates: [  0.733333333333334,  0.066666666666667,  0.866909941464153 ]
    mass: 121.760000
    reduced_to: 31
  - symbol: Sb # 51
    coordinates: [  0.666666666666667,  0.333333333333334,  0.866909941464153 ]
    mass: 121.760000
    reduced_to: 31
  - symbol: Sb # 52
    coordinates: [  0.766666666666667,  0.433333333333334,  0.866909941464153 ]
    mass: 121.760000
    reduced_to: 31
  - symbol: Sb # 53
    coordinates: [  0.866666666666667,  0.533333333333334,  0.866909941464153 ]
    mass: 121.760000
    reduced_to: 31
  - symbol: Sb # 54
    coordinates: [  0.966666666666667,  0.633333333333334,  0.866909941464153 ]
    mass: 121.760000
    reduced_to: 31
  - symbol: Sb # 55
    coordinates: [  0.066666666666667,  0.733333333333334,  0.866909941464153 ]
    mass: 121.760000
    reduced_to: 31
  - symbol: Sb # 56
    coordinates: [  0.166666666666667,  0.833333333333334,  0.866909941464153 ]
    mass: 121.760000
    reduced_to: 31
  - symbol: Sb # 57
    coordinates: [  0.266666666666667,  0.933333333333334,  0.866909941464153 ]
    mass: 121.760000
    reduced_to: 31
  - symbol: Sb # 58
    coordinates: [  0.366666666666667,  0.033333333333334,  0.866909941464153 ]
    mass: 121.760000
    reduced_to: 31
  - symbol: Sb # 59
    coordinates: [  0.466666666666667,  0.133333333333334,  0.866909941464153 ]
    mass: 121.760000
    reduced_to: 31
  - symbol: Sb # 60
    coordinates: [  0.566666666666667,  0.233333333333334,  0.866909941464153 ]
    mass: 121.760000
    reduced_to: 31
  - symbol: Sb # 61
    coordinates: [  0.922222222222223,  0.144444444444445,  0.294012864303854 ]
    mass: 121.760000
    reduced_to: 61
  - symbol: Sb # 62
    coordinates: [  0.022222222222223,  0.244444444444445,  0.294012864303854 ]
    mass: 121.760000
    reduced_to: 61
  - symbol: Sb # 63
    coordinates: [  0.122222222222223,  0.344444444444445,  0.294012864303854 ]
    mass: 121.760000
    reduced_to: 61
  - symbol: Sb # 64
    coordinates: [  0.222222222222223,  0.444444444444445,  0.294012864303854 ]
    mass: 121.760000
    reduced_to: 61
  - symbol: Sb # 65
    coordinates: [  0.322222222222223,  0.544444444444445,  0.294012864303854 ]
    mass: 121.760000
    reduced_to: 61
  - symbol: Sb # 66
    coordinates: [  0.422222222222223,  0.644444444444445,  0.294012864303854 ]
    mass: 121.760000
    reduced_to: 61
  - symbol: Sb # 67
    coordinates: [  0.522222222222223,  0.744444444444445,  0.294012864303854 ]
    mass: 121.760000
    reduced_to: 61
  - symbol: Sb # 68
    coordinates: [  0.622222222222223,  0.844444444444445,  0.294012864303854 ]
    mass: 121.760000
    reduced_to: 61
  - symbol: Sb # 69
    coordinates: [  0.722222222222223,  0.944444444444445,  0.294012864303854 ]
    mass: 121.760000
    reduced_to: 61
  - symbol: Sb # 70
    coordinates: [  0.822222222222223,  0.044444444444445,  0.294012864303854 ]
    mass: 121.760000
    reduced_to: 61
  - symbol: Sb # 71
    coordinates: [  0.755555555555556,  0.311111111111111,  0.294012864303854 ]
    mass: 121.760000
    reduced_to: 61
  - symbol: Sb # 72
    coordinates: [  0.855555555555556,  0.411111111111111,  0.294012864303854 ]
    mass: 121.760000
    reduced_to: 61
  - symbol: Sb # 73
    coordinates: [  0.955555555555556,  0.511111111111112,  0.294012864303854 ]
    mass: 121.760000
    reduced_to: 61
  - symbol: Sb # 74
    coordinates: [  0.055555555555556,  0.611111111111111,  0.294012864303854 ]
    mass: 121.760000
    reduced_to: 61
  - symbol: Sb # 75
    coordinates: [  0.155555555555556,  0.711111111111111,  0.294012864303854 ]
    mass: 121.760000
    reduced_to: 61
  - symbol: Sb # 76
    coordinates: [  0.255555555555556,  0.811111111111112,  0.294012864303854 ]
    mass: 121.760000
    reduced_to: 61
  - symbol: Sb # 77
    coordinates: [  0.355555555555556,  0.911111111111111,  0.294012864303854 ]
    mass: 121.760000
    reduced_to: 61
  - symbol: Sb # 78
    coordinates: [  0.455555555555556,  0.011111111111112,  0.294012864303854 ]
    mass: 121.760000
    reduced_to: 61
  - symbol: Sb # 79
    coordinates: [  0.555555555555556,  0.111111111111112,  0.294012864303854 ]
    mass: 121.760000
    reduced_to: 61
  - symbol: Sb # 80
    coordinates: [  0.655555555555556,  0.211111111111111,  0.294012864303854 ]
    mass: 121.760000
    reduced_to: 61
  - symbol: Sb # 81
    coordinates: [  0.588888888888889,  0.477777777777778,  0.294012864303854 ]
    mass: 121.760000
    reduced_to: 61
  - symbol: Sb # 82
    coordinates: [  0.688888888888889,  0.577777777777778,  0.294012864303854 ]
    mass: 121.760000
    reduced_to: 61
  - symbol: Sb # 83
    coordinates: [  0.788888888888889,  0.677777777777778,  0.294012864303854 ]
    mass: 121.760000
    reduced_to: 61
  - symbol: Sb # 84
    coordinates: [  0.888888888888889,  0.777777777777778,  0.294012864303854 ]
    mass: 121.760000
    reduced_to: 61
  - symbol: Sb # 85
    coordinates: [  0.988888888888889,  0.877777777777778,  0.294012864303854 ]
    mass: 121.760000
    reduced_to: 61
  - symbol: Sb # 86
    coordinates: [  0.088888888888889,  0.977777777777778,  0.294012864303854 ]
    mass: 121.760000
    reduced_to: 61
  - symbol: Sb # 87
    coordinates: [  0.188888888888889,  0.077777777777778,  0.294012864303854 ]
    mass: 121.760000
    reduced_to: 61
  - symbol: Sb # 88
    coordinates: [  0.288888888888889,  0.177777777777778,  0.294012864303854 ]
    mass: 121.760000
    reduced_to: 61
  - symbol: Sb # 89
    coordinates: [  0.388888888888889,  0.277777777777778,  0.294012864303854 ]
    mass: 121.760000
    reduced_to: 61
  - symbol: Sb # 90
    coordinates: [  0.488888888888889,  0.377777777777778,  0.294012864303854 ]
    mass: 121.760000
    reduced_to: 61
  - symbol: Sb # 91
    coordinates: [  0.011111111111111,  0.122222222222223,  0.705987135696142 ]
    mass: 121.760000
    reduced_to: 91
  - symbol: Sb # 92
    coordinates: [  0.111111111111111,  0.222222222222223,  0.705987135696142 ]
    mass: 121.760000
    reduced_to: 91
  - symbol: Sb # 93
    coordinates: [  0.211111111111111,  0.322222222222223,  0.705987135696142 ]
    mass: 121.760000
    reduced_to: 91
  - symbol: Sb # 94
    coordinates: [  0.311111111111111,  0.422222222222223,  0.705987135696142 ]
    mass: 121.760000
    reduced_to: 91
  - symbol: Sb # 95
    coordinates: [  0.411111111111111,  0.522222222222223,  0.705987135696142 ]
    mass: 121.760000
    reduced_to: 91
  - symbol: Sb # 96
    coordinates: [  0.511111111111111,  0.622222222222223,  0.705987135696142 ]
    mass: 121.760000
    reduced_to: 91
  - symbol: Sb # 97
    coordinates: [  0.611111111111111,  0.722222222222223,  0.705987135696142 ]
    mass: 121.760000
    reduced_to: 91
  - symbol: Sb # 98
    coordinates: [  0.711111111111111,  0.822222222222223,  0.705987135696142 ]
    mass: 121.760000
    reduced_to: 91
  - symbol: Sb # 99
    coordinates: [  0.811111111111111,  0.922222222222223,  0.705987135696142 ]
    mass: 121.760000
    reduced_to: 91
  - symbol: Sb # 100
    coordinates: [  0.911111111111111,  0.022222222222223,  0.705987135696142 ]
    mass: 121.760000
    reduced_to: 91
  - symbol: Sb # 101
    coordinates: [  0.844444444444445,  0.288888888888889,  0.705987135696142 ]
    mass: 121.760000
    reduced_to: 91
  - symbol: Sb # 102
    coordinates: [  0.944444444444445,  0.388888888888889,  0.705987135696142 ]
    mass: 121.760000
    reduced_to: 91
  - symbol: Sb # 103
    coordinates: [  0.044444444444445,  0.488888888888889,  0.705987135696142 ]
    mass: 121.760000
    reduced_to: 91
  - symbol: Sb # 104
    coordinates: [  0.144444444444445,  0.588888888888889,  0.705987135696142 ]
    mass: 121.760000
    reduced_to: 91
  - symbol: Sb # 105
    coordinates: [  0.244444444444445,  0.688888888888889,  0.705987135696142 ]
    mass: 121.760000
    reduced_to: 91
  - symbol: Sb # 106
    coordinates: [  0.344444444444445,  0.788888888888889,  0.705987135696142 ]
    mass: 121.760000
    reduced_to: 91
  - symbol: Sb # 107
    coordinates: [  0.444444444444445,  0.888888888888889,  0.705987135696142 ]
    mass: 121.760000
    reduced_to: 91
  - symbol: Sb # 108
    coordinates: [  0.544444444444445,  0.988888888888889,  0.705987135696142 ]
    mass: 121.760000
    reduced_to: 91
  - symbol: Sb # 109
    coordinates: [  0.644444444444445,  0.088888888888889,  0.705987135696142 ]
    mass: 121.760000
    reduced_to: 91
  - symbol: Sb # 110
    coordinates: [  0.744444444444445,  0.188888888888889,  0.705987135696142 ]
    mass: 121.760000
    reduced_to: 91
  - symbol: Sb # 111
    coordinates: [  0.677777777777778,  0.455555555555556,  0.705987135696142 ]
    mass: 121.760000
    reduced_to: 91
  - symbol: Sb # 112
    coordinates: [  0.777777777777778,  0.555555555555556,  0.705987135696142 ]
    mass: 121.760000
    reduced_to: 91
  - symbol: Sb # 113
    coordinates: [  0.877777777777778,  0.655555555555556,  0.705987135696142 ]
    mass: 121.760000
    reduced_to: 91
  - symbol: Sb # 114
    coordinates: [  0.977777777777778,  0.755555555555556,  0.705987135696142 ]
    mass: 121.760000
    reduced_to: 91
  - symbol: Sb # 115
    coordinates: [  0.077777777777778,  0.855555555555556,  0.705987135696142 ]
    mass: 121.760000
    reduced_to: 91
  - symbol: Sb # 116
    coordinates: [  0.177777777777778,  0.955555555555556,  0.705987135696142 ]
    mass: 121.760000
    reduced_to: 91
  - symbol: Sb # 117
    coordinates: [  0.277777777777778,  0.055555555555556,  0.705987135696142 ]
    mass: 121.760000
    reduced_to: 91
  - symbol: Sb # 118
    coordinates: [  0.377777777777778,  0.155555555555556,  0.705987135696142 ]
    mass: 121.760000
    reduced_to: 91
  - symbol: Sb # 119
    coordinates: [  0.477777777777778,  0.255555555555556,  0.705987135696142 ]
    mass: 121.760000
    reduced_to: 91
  - symbol: Sb # 120
    coordinates: [  0.577777777777778,  0.355555555555556,  0.705987135696142 ]
    mass: 121.760000
    reduced_to: 91
  - symbol: Sb # 121
    coordinates: [  0.922222222222222,  0.144444444444445,  0.531522356412498 ]
    mass: 121.760000
    reduced_to: 121
  - symbol: Sb # 122
    coordinates: [  0.022222222222223,  0.244444444444445,  0.531522356412498 ]
    mass: 121.760000
    reduced_to: 121
  - symbol: Sb # 123
    coordinates: [  0.122222222222223,  0.344444444444445,  0.531522356412498 ]
    mass: 121.760000
    reduced_to: 121
  - symbol: Sb # 124
    coordinates: [  0.222222222222223,  0.444444444444445,  0.531522356412498 ]
    mass: 121.760000
    reduced_to: 121
  - symbol: Sb # 125
    coordinates: [  0.322222222222223,  0.544444444444445,  0.531522356412498 ]
    mass: 121.760000
    reduced_to: 121
  - symbol: Sb # 126
    coordinates: [  0.422222222222223,  0.644444444444445,  0.531522356412498 ]
    mass: 121.760000
    reduced_to: 121
  - symbol: Sb # 127
    coordinates: [  0.522222222222223,  0.744444444444445,  0.531522356412498 ]
    mass: 121.760000
    reduced_to: 121
  - symbol: Sb # 128
    coordinates: [  0.622222222222223,  0.844444444444445,  0.531522356412498 ]
    mass: 121.760000
    reduced_to: 121
  - symbol: Sb # 129
    coordinates: [  0.722222222222223,  0.944444444444445,  0.531522356412498 ]
    mass: 121.760000
    reduced_to: 121
  - symbol: Sb # 130
    coordinates: [  0.822222222222223,  0.044444444444445,  0.531522356412498 ]
    mass: 121.760000
    reduced_to: 121
  - symbol: Sb # 131
    coordinates: [  0.755555555555556,  0.311111111111112,  0.531522356412498 ]
    mass: 121.760000
    reduced_to: 121
  - symbol: Sb # 132
    coordinates: [  0.855555555555556,  0.411111111111112,  0.531522356412498 ]
    mass: 121.760000
    reduced_to: 121
  - symbol: Sb # 133
    coordinates: [  0.955555555555556,  0.511111111111112,  0.531522356412498 ]
    mass: 121.760000
    reduced_to: 121
  - symbol: Sb # 134
    coordinates: [  0.055555555555556,  0.611111111111111,  0.531522356412498 ]
    mass: 121.760000
    reduced_to: 121
  - symbol: Sb # 135
    coordinates: [  0.155555555555556,  0.711111111111112,  0.531522356412498 ]
    mass: 121.760000
    reduced_to: 121
  - symbol: Sb # 136
    coordinates: [  0.255555555555556,  0.811111111111112,  0.531522356412498 ]
    mass: 121.760000
    reduced_to: 121
  - symbol: Sb # 137
    coordinates: [  0.355555555555556,  0.911111111111112,  0.531522356412498 ]
    mass: 121.760000
    reduced_to: 121
  - symbol: Sb # 138
    coordinates: [  0.455555555555556,  0.011111111111112,  0.531522356412498 ]
    mass: 121.760000
    reduced_to: 121
  - symbol: Sb # 139
    coordinates: [  0.555555555555556,  0.111111111111112,  0.531522356412498 ]
    mass: 121.760000
    reduced_to: 121
  - symbol: Sb # 140
    coordinates: [  0.655555555555556,  0.211111111111112,  0.531522356412498 ]
    mass: 121.760000
    reduced_to: 121
  - symbol: Sb # 141
    coordinates: [  0.588888888888889,  0.477777777777778,  0.531522356412498 ]
    mass: 121.760000
    reduced_to: 121
  - symbol: Sb # 142
    coordinates: [  0.688888888888889,  0.577777777777778,  0.531522356412498 ]
    mass: 121.760000
    reduced_to: 121
  - symbol: Sb # 143
    coordinates: [  0.788888888888889,  0.677777777777778,  0.531522356412498 ]
    mass: 121.760000
    reduced_to: 121
  - symbol: Sb # 144
    coordinates: [  0.888888888888889,  0.777777777777778,  0.531522356412498 ]
    mass: 121.760000
    reduced_to: 121
  - symbol: Sb # 145
    coordinates: [  0.988888888888889,  0.877777777777778,  0.531522356412498 ]
    mass: 121.760000
    reduced_to: 121
  - symbol: Sb # 146
    coordinates: [  0.088888888888889,  0.977777777777778,  0.531522356412498 ]
    mass: 121.760000
    reduced_to: 121
  - symbol: Sb # 147
    coordinates: [  0.188888888888889,  0.077777777777778,  0.531522356412498 ]
    mass: 121.760000
    reduced_to: 121
  - symbol: Sb # 148
    coordinates: [  0.288888888888889,  0.177777777777778,  0.531522356412498 ]
    mass: 121.760000
    reduced_to: 121
  - symbol: Sb # 149
    coordinates: [  0.388888888888889,  0.277777777777778,  0.531522356412498 ]
    mass: 121.760000
    reduced_to: 121
  - symbol: Sb # 150
    coordinates: [  0.488888888888889,  0.377777777777778,  0.531522356412498 ]
    mass: 121.760000
    reduced_to: 121
  - symbol: Sb # 151
    coordinates: [  0.011111111111111,  0.122222222222223,  0.468477643587498 ]
    mass: 121.760000
    reduced_to: 151
  - symbol: Sb # 152
    coordinates: [  0.111111111111111,  0.222222222222223,  0.468477643587498 ]
    mass: 121.760000
    reduced_to: 151
  - symbol: Sb # 153
    coordinates: [  0.211111111111111,  0.322222222222223,  0.468477643587498 ]
    mass: 121.760000
    reduced_to: 151
  - symbol: Sb # 154
    coordinates: [  0.311111111111111,  0.422222222222223,  0.468477643587498 ]
    mass: 121.760000
    reduced_to: 151
  - symbol: Sb # 155
    coordinates: [  0.411111111111111,  0.522222222222223,  0.468477643587498 ]
    mass: 121.760000
    reduced_to: 151
  - symbol: Sb # 156
    coordinates: [  0.511111111111112,  0.622222222222223,  0.468477643587498 ]
    mass: 121.760000
    reduced_to: 151
  - symbol: Sb # 157
    coordinates: [  0.611111111111111,  0.722222222222223,  0.468477643587498 ]
    mass: 121.760000
    reduced_to: 151
  - symbol: Sb # 158
    coordinates: [  0.711111111111111,  0.822222222222223,  0.468477643587498 ]
    mass: 121.760000
    reduced_to: 151
  - symbol: Sb # 159
    coordinates: [  0.811111111111111,  0.922222222222223,  0.468477643587498 ]
    mass: 121.760000
    reduced_to: 151
  - symbol: Sb # 160
    coordinates: [  0.911111111111111,  0.022222222222223,  0.468477643587498 ]
    mass: 121.760000
    reduced_to: 151
  - symbol: Sb # 161
    coordinates: [  0.844444444444445,  0.288888888888889,  0.468477643587498 ]
    mass: 121.760000
    reduced_to: 151
  - symbol: Sb # 162
    coordinates: [  0.944444444444445,  0.388888888888889,  0.468477643587498 ]
    mass: 121.760000
    reduced_to: 151
  - symbol: Sb # 163
    coordinates: [  0.044444444444445,  0.488888888888889,  0.468477643587498 ]
    mass: 121.760000
    reduced_to: 151
  - symbol: Sb # 164
    coordinates: [  0.144444444444445,  0.588888888888889,  0.468477643587498 ]
    mass: 121.760000
    reduced_to: 151
  - symbol: Sb # 165
    coordinates: [  0.244444444444445,  0.688888888888889,  0.468477643587498 ]
    mass: 121.760000
    reduced_to: 151
  - symbol: Sb # 166
    coordinates: [  0.344444444444445,  0.788888888888889,  0.468477643587498 ]
    mass: 121.760000
    reduced_to: 151
  - symbol: Sb # 167
    coordinates: [  0.444444444444445,  0.888888888888889,  0.468477643587498 ]
    mass: 121.760000
    reduced_to: 151
  - symbol: Sb # 168
    coordinates: [  0.544444444444445,  0.988888888888889,  0.468477643587498 ]
    mass: 121.760000
    reduced_to: 151
  - symbol: Sb # 169
    coordinates: [  0.644444444444445,  0.088888888888889,  0.468477643587498 ]
    mass: 121.760000
    reduced_to: 151
  - symbol: Sb # 170
    coordinates: [  0.744444444444445,  0.188888888888889,  0.468477643587498 ]
    mass: 121.760000
    reduced_to: 151
  - symbol: Sb # 171
    coordinates: [  0.677777777777778,  0.455555555555556,  0.468477643587498 ]
    mass: 121.760000
    reduced_to: 151
  - symbol: Sb # 172
    coordinates: [  0.777777777777778,  0.555555555555556,  0.468477643587498 ]
    mass: 121.760000
    reduced_to: 151
  - symbol: Sb # 173
    coordinates: [  0.877777777777778,  0.655555555555556,  0.468477643587498 ]
    mass: 121.760000
    reduced_to: 151
  - symbol: Sb # 174
    coordinates: [  0.977777777777778,  0.755555555555556,  0.468477643587498 ]
    mass: 121.760000
    reduced_to: 151
  - symbol: Sb # 175
    coordinates: [  0.077777777777778,  0.855555555555556,  0.468477643587498 ]
    mass: 121.760000
    reduced_to: 151
  - symbol: Sb # 176
    coordinates: [  0.177777777777778,  0.955555555555556,  0.468477643587498 ]
    mass: 121.760000
    reduced_to: 151
  - symbol: Sb # 177
    coordinates: [  0.277777777777778,  0.055555555555556,  0.468477643587498 ]
    mass: 121.760000
    reduced_to: 151
  - symbol: Sb # 178
    coordinates: [  0.377777777777778,  0.155555555555556,  0.468477643587498 ]
    mass: 121.760000
    reduced_to: 151
  - symbol: Sb # 179
    coordinates: [  0.477777777777778,  0.255555555555556,  0.468477643587498 ]
    mass: 121.760000
    reduced_to: 151
  - symbol: Sb # 180
    coordinates: [  0.577777777777778,  0.355555555555556,  0.468477643587498 ]
    mass: 121.760000
    reduced_to: 151