phonopy:
  version: "2.21.0"
  frequency_unit_conversion_factor: 15.633302
  symmetry_tolerance: 1.00000e-04

space_group:
  type: "R3m"
  number: 160
  Hall_symbol: "R 3 -2\""

primitive_matrix:
- [  0.666666666666667, -0.333333333333333, -0.333333333333334 ]
- [  0.333333333333333,  0.333333333333333, -0.666666666666667 ]
- [  0.333333333333333,  0.333333333333333,  0.333333333333333 ]

supercell_matrix:
- [   5,   5,   0 ]
- [  -3,   3,   0 ]
- [   0,   0,   1 ]

primitive_cell:
  lattice:
  - [     2.158420548186357,    -1.246164684519811,     8.305639337346983 ] # a
  - [    -0.000000000000000,     2.492329369039625,     8.305639337346983 ] # b
  - [    -2.158420548186357,    -1.246164684519812,     8.305639337346983 ] # c
  points:
  - symbol: Bi # 1
    coordinates: [  0.392815168224366,  0.392815168224360,  0.392815168224366 ]
    mass: 208.980400
  - symbol: Te # 2
    coordinates: [  0.223571815368377,  0.223571815368377,  0.223571815368377 ]
    mass: 127.600000
  - symbol: Te # 3
    coordinates: [  0.977710322799699,  0.977710322799706,  0.977710322799699 ]
    mass: 127.600000
  - symbol: Te # 4
    coordinates: [  0.804401693607566,  0.804401693607573,  0.804401693607567 ]
    mass: 127.600000
  reciprocal_lattice: # without 2pi
  - [     0.231650871013127,    -0.133743692737440,     0.040133374421217 ] # a*
  - [    -0.000000000000000,     0.267487385474880,     0.040133374421217 ] # b*
  - [    -0.231650871013127,    -0.133743692737440,     0.040133374421217 ] # c*

unit_cell:
  lattice:
  - [     2.158420548186356,    -3.738494053559436,    -0.000000000000000 ] # a
  - [     2.158420548186356,     3.738494053559436,     0.000000000000000 ] # b
  - [     0.000000000000000,    -0.000000000000000,    24.916918012040949 ] # c
  points:
  - symbol: Bi # 1
    coordinates: [  0.333333333333336,  0.666666666666664,  0.059481834891030 ]
    mass: 208.980400
    reduced_to: 1
  - symbol: Bi # 2
    coordinates: [ -0.000000000000000, -0.000000000000000,  0.392815168224359 ]
    mass: 208.980400
    reduced_to: 1
  - symbol: Bi # 3
    coordinates: [  0.666666666666664,  0.333333333333336,  0.726148501557695 ]
    mass: 208.980400
    reduced_to: 1
  - symbol: Te # 4
    coordinates: [  0.000000000000000, -0.000000000000000,  0.223571815368377 ]
    mass: 127.600000
    reduced_to: 4
  - symbol: Te # 5
    coordinates: [  0.666666666666664,  0.333333333333336,  0.311043656133034 ]
    mass: 127.600000
    reduced_to: 5
  - symbol: Te # 6
    coordinates: [  0.666666666666664,  0.333333333333336,  0.137735026940902 ]
    mass: 127.600000
    reduced_to: 6
  - symbol: Te # 7
    coordinates: [  0.666666666666664,  0.333333333333336,  0.556905148701705 ]
    mass: 127.600000
    reduced_to: 4
  - symbol: Te # 8
    coordinates: [  0.333333333333336,  0.666666666666664,  0.644376989466363 ]
    mass: 127.600000
    reduced_to: 5
  - symbol: Te # 9
    coordinates: [  0.333333333333336,  0.666666666666664,  0.471068360274231 ]
    mass: 127.600000
    reduced_to: 6
  - symbol: Te # 10
    coordinates: [  0.333333333333336,  0.666666666666664,  0.890238482035041 ]
    mass: 127.600000
    reduced_to: 4
  - symbol: Te # 11
    coordinates: [ -0.000000000000000,  0.000000000000000,  0.977710322799699 ]
    mass: 127.600000
    reduced_to: 5
  - symbol: Te # 12
    coordinates: [ -0.000000000000000,  0.000000000000000,  0.804401693607566 ]
    mass: 127.600000
    reduced_to: 6

supercell:
  lattice:
  - [     4.316841096372714,   -29.907952428475490,     0.000000000000000 ] # a
  - [    17.267364385490851,    -7.476988107118871,     0.000000000000000 ] # b
  - [     0.000000000000000,    -0.000000000000000,    24.916918012040949 ] # c
  points:
  - symbol: Bi # 1
    coordinates: [  0.922222222222223,  0.144444444444444,  0.059481834891030 ]
    mass: 208.980400
    reduced_to: 1
  - symbol: Bi # 2
    coordinates: [  0.022222222222223,  0.244444444444444,  0.059481834891030 ]
    mass: 208.980400
    reduced_to: 1
  - symbol: Bi # 3
    coordinates: [  0.122222222222223,  0.344444444444444,  0.059481834891030 ]
    mass: 208.980400
    reduced_to: 1
  - symbol: Bi # 4
    coordinates: [  0.222222222222223,  0.444444444444444,  0.059481834891030 ]
    mass: 208.980400
    reduced_to: 1
  - symbol: Bi # 5
    coordinates: [  0.322222222222223,  0.544444444444444,  0.059481834891030 ]
    mass: 208.980400
    reduced_to: 1
  - symbol: Bi # 6
    coordinates: [  0.422222222222223,  0.644444444444444,  0.059481834891030 ]
    mass: 208.980400
    reduced_to: 1
  - symbol: Bi # 7
    coordinates: [  0.522222222222223,  0.744444444444444,  0.059481834891030 ]
    mass: 208.980400
    reduced_to: 1
  - symbol: Bi # 8
    coordinates: [  0.622222222222223,  0.844444444444444,  0.059481834891030 ]
    mass: 208.980400
    reduced_to: 1
  - symbol: Bi # 9
    coordinates: [  0.722222222222223,  0.944444444444444,  0.059481834891030 ]
    mass: 208.980400
    reduced_to: 1
  - symbol: Bi # 10
    coordinates: [  0.822222222222223,  0.044444444444444,  0.059481834891030 ]
    mass: 208.980400
    reduced_to: 1
  - symbol: Bi # 11
    coordinates: [  0.755555555555556,  0.311111111111111,  0.059481834891030 ]
    mass: 208.980400
    reduced_to: 1
  - symbol: Bi # 12
    coordinates: [  0.855555555555556,  0.411111111111111,  0.059481834891030 ]
    mass: 208.980400
    reduced_to: 1
  - symbol: Bi # 13
    coordinates: [  0.955555555555556,  0.511111111111111,  0.059481834891030 ]
    mass: 208.980400
    reduced_to: 1
  - symbol: Bi # 14
    coordinates: [  0.055555555555556,  0.611111111111111,  0.059481834891030 ]
    mass: 208.980400
    reduced_to: 1
  - symbol: Bi # 15
    coordinates: [  0.155555555555556,  0.711111111111111,  0.059481834891030 ]
    mass: 208.980400
    reduced_to: 1
  - symbol: Bi # 16
    coordinates: [  0.255555555555556,  0.811111111111111,  0.059481834891030 ]
    mass: 208.980400
    reduced_to: 1
  - symbol: Bi # 17
    coordinates: [  0.355555555555556,  0.911111111111111,  0.059481834891030 ]
    mass: 208.980400
    reduced_to: 1
  - symbol: Bi # 18
    coordinates: [  0.455555555555556,  0.011111111111111,  0.059481834891030 ]
    mass: 208.980400
    reduced_to: 1
  - symbol: Bi # 19
    coordinates: [  0.555555555555556,  0.111111111111111,  0.059481834891030 ]
    mass: 208.980400
    reduced_to: 1
  - symbol: Bi # 20
    coordinates: [  0.655555555555556,  0.211111111111111,  0.059481834891030 ]
    mass: 208.980400
    reduced_to: 1
  - symbol: Bi # 21
    coordinates: [  0.588888888888889,  0.477777777777778,  0.059481834891030 ]
    mass: 208.980400
    reduced_to: 1
  - symbol: Bi # 22
    coordinates: [  0.688888888888890,  0.577777777777778,  0.059481834891030 ]
    mass: 208.980400
    reduced_to: 1
  - symbol: Bi # 23
    coordinates: [  0.788888888888890,  0.677777777777778,  0.059481834891030 ]
    mass: 208.980400
    reduced_to: 1
  - symbol: Bi # 24
    coordinates: [  0.888888888888890,  0.777777777777778,  0.059481834891030 ]
    mass: 208.980400
    reduced_to: 1
  - symbol: Bi # 25
    coordinates: [  0.988888888888890,  0.877777777777778,  0.059481834891030 ]
    mass: 208.980400
    reduced_to: 1
  - symbol: Bi # 26
    coordinates: [  0.088888888888890,  0.977777777777778,  0.059481834891030 ]
    mass: 208.980400
    reduced_to: 1
  - symbol: Bi # 27
    coordinates: [  0.188888888888890,  0.077777777777778,  0.059481834891030 ]
    mass: 208.980400
    reduced_to: 1
  - symbol: Bi # 28
    coordinates: [  0.288888888888890,  0.177777777777778,  0.059481834891030 ]
    mass: 208.980400
    reduced_to: 1
  - symbol: Bi # 29
    coordinates: [  0.388888888888890,  0.277777777777778,  0.059481834891030 ]
    mass: 208.980400
    reduced_to: 1
  - symbol: Bi # 30
    coordinates: [  0.488888888888890,  0.377777777777778,  0.059481834891030 ]
    mass: 208.980400
    reduced_to: 1
  - symbol: Bi # 31
    coordinates: [  0.000000000000000,  0.000000000000000,  0.392815168224359 ]
    mass: 208.980400
    reduced_to: 1
  - symbol: Bi # 32
    coordinates: [  0.100000000000000,  0.100000000000000,  0.392815168224359 ]
    mass: 208.980400
    reduced_to: 1
  - symbol: Bi # 33
    coordinates: [  0.200000000000000,  0.200000000000000,  0.392815168224359 ]
    mass: 208.980400
    reduced_to: 1
  - symbol: Bi # 34
    coordinates: [  0.300000000000000,  0.300000000000000,  0.392815168224359 ]
    mass: 208.980400
    reduced_to: 1
  - symbol: Bi # 35
    coordinates: [  0.400000000000000,  0.400000000000000,  0.392815168224359 ]
    mass: 208.980400
    reduced_to: 1
  - symbol: Bi # 36
    coordinates: [  0.500000000000000,  0.500000000000000,  0.392815168224359 ]
    mass: 208.980400
    reduced_to: 1
  - symbol: Bi # 37
    coordinates: [  0.600000000000000,  0.600000000000000,  0.392815168224359 ]
    mass: 208.980400
    reduced_to: 1
  - symbol: Bi # 38
    coordinates: [  0.700000000000000,  0.700000000000000,  0.392815168224359 ]
    mass: 208.980400
    reduced_to: 1
  - symbol: Bi # 39
    coordinates: [  0.800000000000000,  0.800000000000000,  0.392815168224359 ]
    mass: 208.980400
    reduced_to: 1
  - symbol: Bi # 40
    coordinates: [  0.900000000000000,  0.900000000000000,  0.392815168224359 ]
    mass: 208.980400
    reduced_to: 1
  - symbol: Bi # 41
    coordinates: [  0.833333333333333,  0.166666666666667,  0.392815168224359 ]
    mass: 208.980400
    reduced_to: 1
  - symbol: Bi # 42
    coordinates: [  0.933333333333333,  0.266666666666667,  0.392815168224359 ]
    mass: 208.980400
    reduced_to: 1
  - symbol: Bi # 43
    coordinates: [  0.033333333333333,  0.366666666666667,  0.392815168224359 ]
    mass: 208.980400
    reduced_to: 1
  - symbol: Bi # 44
    coordinates: [  0.133333333333333,  0.466666666666667,  0.392815168224359 ]
    mass: 208.980400
    reduced_to: 1
  - symbol: Bi # 45
    coordinates: [  0.233333333333333,  0.566666666666667,  0.392815168224359 ]
    mass: 208.980400
    reduced_to: 1
  - symbol: Bi # 46
    coordinates: [  0.333333333333333,  0.666666666666667,  0.392815168224359 ]
    mass: 208.980400
    reduced_to: 1
  - symbol: Bi # 47
    coordinates: [  0.433333333333333,  0.766666666666667,  0.392815168224359 ]
    mass: 208.980400
    reduced_to: 1
  - symbol: Bi # 48
    coordinates: [  0.533333333333333,  0.866666666666667,  0.392815168224359 ]
    mass: 208.980400
    reduced_to: 1
  - symbol: Bi # 49
    coordinates: [  0.633333333333333,  0.966666666666667,  0.392815168224359 ]
    mass: 208.980400
    reduced_to: 1
  - symbol: Bi # 50
    coordinates: [  0.733333333333333,  0.066666666666667,  0.392815168224359 ]
    mass: 208.980400
    reduced_to: 1
  - symbol: Bi # 51
    coordinates: [  0.666666666666667,  0.333333333333333,  0.392815168224359 ]
    mass: 208.980400
    reduced_to: 1
  - symbol: Bi # 52
    coordinates: [  0.766666666666667,  0.433333333333333,  0.392815168224359 ]
    mass: 208.980400
    reduced_to: 1
  - symbol: Bi # 53
    coordinates: [  0.866666666666667,  0.533333333333333,  0.392815168224359 ]
    mass: 208.980400
    reduced_to: 1
  - symbol: Bi # 54
    coordinates: [  0.966666666666667,  0.633333333333333,  0.392815168224359 ]
    mass: 208.980400
    reduced_to: 1
  - symbol: Bi # 55
    coordinates: [  0.066666666666667,  0.733333333333333,  0.392815168224359 ]
    mass: 208.980400
    reduced_to: 1
  - symbol: Bi # 56
    coordinates: [  0.166666666666667,  0.833333333333333,  0.392815168224359 ]
    mass: 208.980400
    reduced_to: 1
  - symbol: Bi # 57
    coordinates: [  0.266666666666667,  0.933333333333333,  0.392815168224359 ]
    mass: 208.980400
    reduced_to: 1
  - symbol: Bi # 58
    coordinates: [  0.366666666666667,  0.033333333333333,  0.392815168224359 ]
    mass: 208.980400
    reduced_to: 1
  - symbol: Bi # 59
    coordinates: [  0.466666666666667,  0.133333333333333,  0.392815168224359 ]
    mass: 208.980400
    reduced_to: 1
  - symbol: Bi # 60
    coordinates: [  0.566666666666667,  0.233333333333333,  0.392815168224359 ]
    mass: 208.980400
    reduced_to: 1
  - symbol: Bi # 61
    coordinates: [  0.011111111111110,  0.122222222222222,  0.726148501557695 ]
    mass: 208.980400
    reduced_to: 1
  - symbol: Bi # 62
    coordinates: [  0.111111111111110,  0.222222222222222,  0.726148501557695 ]
    mass: 208.980400
    reduced_to: 1
  - symbol: Bi # 63
    coordinates: [  0.211111111111110,  0.322222222222222,  0.726148501557695 ]
    mass: 208.980400
    reduced_to: 1
  - symbol: Bi # 64
    coordinates: [  0.311111111111111,  0.422222222222222,  0.726148501557695 ]
    mass: 208.980400
    reduced_to: 1
  - symbol: Bi # 65
    coordinates: [  0.411111111111110,  0.522222222222222,  0.726148501557695 ]
    mass: 208.980400
    reduced_to: 1
  - symbol: Bi # 66
    coordinates: [  0.511111111111111,  0.622222222222222,  0.726148501557695 ]
    mass: 208.980400
    reduced_to: 1
  - symbol: Bi # 67
    coordinates: [  0.611111111111111,  0.722222222222222,  0.726148501557695 ]
    mass: 208.980400
    reduced_to: 1
  - symbol: Bi # 68
    coordinates: [  0.711111111111111,  0.822222222222222,  0.726148501557695 ]
    mass: 208.980400
    reduced_to: 1
  - symbol: Bi # 69
    coordinates: [  0.811111111111111,  0.922222222222222,  0.726148501557695 ]
    mass: 208.980400
    reduced_to: 1
  - symbol: Bi # 70
    coordinates: [  0.911111111111111,  0.022222222222222,  0.726148501557695 ]
    mass: 208.980400
    reduced_to: 1
  - symbol: Bi # 71
    coordinates: [  0.844444444444444,  0.288888888888889,  0.726148501557695 ]
    mass: 208.980400
    reduced_to: 1
  - symbol: Bi # 72
    coordinates: [  0.944444444444444,  0.388888888888889,  0.726148501557695 ]
    mass: 208.980400
    reduced_to: 1
  - symbol: Bi # 73
    coordinates: [  0.044444444444444,  0.488888888888889,  0.726148501557695 ]
    mass: 208.980400
    reduced_to: 1
  - symbol: Bi # 74
    coordinates: [  0.144444444444444,  0.588888888888889,  0.726148501557695 ]
    mass: 208.980400
    reduced_to: 1
  - symbol: Bi # 75
    coordinates: [  0.244444444444444,  0.688888888888889,  0.726148501557695 ]
    mass: 208.980400
    reduced_to: 1
  - symbol: Bi # 76
    coordinates: [  0.344444444444444,  0.788888888888889,  0.726148501557695 ]
    mass: 208.980400
    reduced_to: 1
  - symbol: Bi # 77
    coordinates: [  0.444444444444444,  0.888888888888889,  0.726148501557695 ]
    mass: 208.980400
    reduced_to: 1
  - symbol: Bi # 78
    coordinates: [  0.544444444444444,  0.988888888888889,  0.726148501557695 ]
    mass: 208.980400
    reduced_to: 1
  - symbol: Bi # 79
    coordinates: [  0.644444444444444,  0.088888888888889,  0.726148501557695 ]
    mass: 208.980400
    reduced_to: 1
  - symbol: Bi # 80
    coordinates: [  0.744444444444444,  0.188888888888889,  0.726148501557695 ]
    mass: 208.980400
    reduced_to: 1
  - symbol: Bi # 81
    coordinates: [  0.677777777777777,  0.455555555555556,  0.726148501557695 ]
    mass: 208.980400
    reduced_to: 1
  - symbol: Bi # 82
    coordinates: [  0.777777777777777,  0.555555555555556,  0.726148501557695 ]
    mass: 208.980400
    reduced_to: 1
  - symbol: Bi # 83
    coordinates: [  0.877777777777777,  0.655555555555556,  0.726148501557695 ]
    mass: 208.980400
    reduced_to: 1
  - symbol: Bi # 84
    coordinates: [  0.977777777777777,  0.755555555555556,  0.726148501557695 ]
    mass: 208.980400
    reduced_to: 1
  - symbol: Bi # 85
    coordinates: [  0.077777777777777,  0.855555555555556,  0.726148501557695 ]
    mass: 208.980400
    reduced_to: 1
  - symbol: Bi # 86
    coordinates: [  0.177777777777777,  0.955555555555556,  0.726148501557695 ]
    mass: 208.980400
    reduced_to: 1
  - symbol: Bi # 87
    coordinates: [  0.277777777777777,  0.055555555555556,  0.726148501557695 ]
    mass: 208.980400
    reduced_to: 1
  - symbol: Bi # 88
    coordinates: [  0.377777777777777,  0.155555555555556,  0.726148501557695 ]
    mass: 208.980400
    reduced_to: 1
  - symbol: Bi # 89
    coordinates: [  0.477777777777777,  0.255555555555556,  0.726148501557695 ]
    mass: 208.980400
    reduced_to: 1
  - symbol: Bi # 90
    coordinates: [  0.577777777777777,  0.355555555555556,  0.726148501557695 ]
    mass: 208.980400
    reduced_to: 1
  - symbol: Te # 91
    coordinates: [  0.000000000000000,  0.000000000000000,  0.223571815368377 ]
    mass: 127.600000
    reduced_to: 91
  - symbol: Te # 92
    coordinates: [  0.100000000000000,  0.100000000000000,  0.223571815368377 ]
    mass: 127.600000
    reduced_to: 91
  - symbol: Te # 93
    coordinates: [  0.200000000000000,  0.200000000000000,  0.223571815368377 ]
    mass: 127.600000
    reduced_to: 91
  - symbol: Te # 94
    coordinates: [  0.300000000000000,  0.300000000000000,  0.223571815368377 ]
    mass: 127.600000
    reduced_to: 91
  - symbol: Te # 95
    coordinates: [  0.400000000000000,  0.400000000000000,  0.223571815368377 ]
    mass: 127.600000
    reduced_to: 91
  - symbol: Te # 96
    coordinates: [  0.500000000000000,  0.500000000000000,  0.223571815368377 ]
    mass: 127.600000
    reduced_to: 91
  - symbol: Te # 97
    coordinates: [  0.600000000000000,  0.600000000000000,  0.223571815368377 ]
    mass: 127.600000
    reduced_to: 91
  - symbol: Te # 98
    coordinates: [  0.700000000000000,  0.700000000000000,  0.223571815368377 ]
    mass: 127.600000
    reduced_to: 91
  - symbol: Te # 99
    coordinates: [  0.800000000000000,  0.800000000000000,  0.223571815368377 ]
    mass: 127.600000
    reduced_to: 91
  - symbol: Te # 100
    coordinates: [  0.900000000000000,  0.900000000000000,  0.223571815368377 ]
    mass: 127.600000
    reduced_to: 91
  - symbol: Te # 101
    coordinates: [  0.833333333333333,  0.166666666666667,  0.223571815368377 ]
    mass: 127.600000
    reduced_to: 91
  - symbol: Te # 102
    coordinates: [  0.933333333333333,  0.266666666666667,  0.223571815368377 ]
    mass: 127.600000
    reduced_to: 91
  - symbol: Te # 103
    coordinates: [  0.033333333333333,  0.366666666666667,  0.223571815368377 ]
    mass: 127.600000
    reduced_to: 91
  - symbol: Te # 104
    coordinates: [  0.133333333333333,  0.466666666666667,  0.223571815368377 ]
    mass: 127.600000
    reduced_to: 91
  - symbol: Te # 105
    coordinates: [  0.233333333333333,  0.566666666666667,  0.223571815368377 ]
    mass: 127.600000
    reduced_to: 91
  - symbol: Te # 106
    coordinates: [  0.333333333333333,  0.666666666666667,  0.223571815368377 ]
    mass: 127.600000
    reduced_to: 91
  - symbol: Te # 107
    coordinates: [  0.433333333333333,  0.766666666666667,  0.223571815368377 ]
    mass: 127.600000
    reduced_to: 91
  - symbol: Te # 108
    coordinates: [  0.533333333333333,  0.866666666666667,  0.223571815368377 ]
    mass: 127.600000
    reduced_to: 91
  - symbol: Te # 109
    coordinates: [  0.633333333333333,  0.966666666666667,  0.223571815368377 ]
    mass: 127.600000
    reduced_to: 91
  - symbol: Te # 110
    coordinates: [  0.733333333333333,  0.066666666666667,  0.223571815368377 ]
    mass: 127.600000
    reduced_to: 91
  - symbol: Te # 111
    coordinates: [  0.666666666666667,  0.333333333333333,  0.223571815368377 ]
    mass: 127.600000
    reduced_to: 91
  - symbol: Te # 112
    coordinates: [  0.766666666666667,  0.433333333333333,  0.223571815368377 ]
    mass: 127.600000
    reduced_to: 91
  - symbol: Te # 113
    coordinates: [  0.866666666666667,  0.533333333333333,  0.223571815368377 ]
    mass: 127.600000
    reduced_to: 91
  - symbol: Te # 114
    coordinates: [  0.966666666666667,  0.633333333333333,  0.223571815368377 ]
    mass: 127.600000
    reduced_to: 91
  - symbol: Te # 115
    coordinates: [  0.066666666666667,  0.733333333333333,  0.223571815368377 ]
    mass: 127.600000
    reduced_to: 91
  - symbol: Te # 116
    coordinates: [  0.166666666666667,  0.833333333333333,  0.223571815368377 ]
    mass: 127.600000
    reduced_to: 91
  - symbol: Te # 117
    coordinates: [  0.266666666666667,  0.933333333333333,  0.223571815368377 ]
    mass: 127.600000
    reduced_to: 91
  - symbol: Te # 118
    coordinates: [  0.366666666666667,  0.033333333333333,  0.223571815368377 ]
    mass: 127.600000
    reduced_to: 91
  - symbol: Te # 119
    coordinates: [  0.466666666666667,  0.133333333333333,  0.223571815368377 ]
    mass: 127.600000
    reduced_to: 91
  - symbol: Te # 120
    coordinates: [  0.566666666666667,  0.233333333333333,  0.223571815368377 ]
    mass: 127.600000
    reduced_to: 91
  - symbol: Te # 121
    coordinates: [  0.011111111111110,  0.122222222222222,  0.311043656133034 ]
    mass: 127.600000
    reduced_to: 121
  - symbol: Te # 122
    coordinates: [  0.111111111111110,  0.222222222222222,  0.311043656133034 ]
    mass: 127.600000
    reduced_to: 121
  - symbol: Te # 123
    coordinates: [  0.211111111111110,  0.322222222222222,  0.311043656133034 ]
    mass: 127.600000
    reduced_to: 121
  - symbol: Te # 124
    coordinates: [  0.311111111111111,  0.422222222222222,  0.311043656133034 ]
    mass: 127.600000
    reduced_to: 121
  - symbol: Te # 125
    coordinates: [  0.411111111111110,  0.522222222222222,  0.311043656133034 ]
    mass: 127.600000
    reduced_to: 121
  - symbol: Te # 126
    coordinates: [  0.511111111111111,  0.622222222222222,  0.311043656133034 ]
    mass: 127.600000
    reduced_to: 121
  - symbol: Te # 127
    coordinates: [  0.611111111111111,  0.722222222222222,  0.311043656133034 ]
    mass: 127.600000
    reduced_to: 121
  - symbol: Te # 128
    coordinates: [  0.711111111111111,  0.822222222222222,  0.311043656133034 ]
    mass: 127.600000
    reduced_to: 121
  - symbol: Te # 129
    coordinates: [  0.811111111111111,  0.922222222222222,  0.311043656133034 ]
    mass: 127.600000
    reduced_to: 121
  - symbol: Te # 130
    coordinates: [  0.911111111111111,  0.022222222222222,  0.311043656133034 ]
    mass: 127.600000
    reduced_to: 121
  - symbol: Te # 131
    coordinates: [  0.844444444444444,  0.288888888888889,  0.311043656133034 ]
    mass: 127.600000
    reduced_to: 121
  - symbol: Te # 132
    coordinates: [  0.944444444444444,  0.388888888888889,  0.311043656133034 ]
    mass: 127.600000
    reduced_to: 121
  - symbol: Te # 133
    coordinates: [  0.044444444444444,  0.488888888888889,  0.311043656133034 ]
    mass: 127.600000
    reduced_to: 121
  - symbol: Te # 134
    coordinates: [  0.144444444444444,  0.588888888888889,  0.311043656133034 ]
    mass: 127.600000
    reduced_to: 121
  - symbol: Te # 135
    coordinates: [  0.244444444444444,  0.688888888888889,  0.311043656133034 ]
    mass: 127.600000
    reduced_to: 121
  - symbol: Te # 136
    coordinates: [  0.344444444444444,  0.788888888888889,  0.311043656133034 ]
    mass: 127.600000
    reduced_to: 121
  - symbol: Te # 137
    coordinates: [  0.444444444444444,  0.888888888888889,  0.311043656133034 ]
    mass: 127.600000
    reduced_to: 121
  - symbol: Te # 138
    coordinates: [  0.544444444444444,  0.988888888888889,  0.311043656133034 ]
    mass: 127.600000
    reduced_to: 121
  - symbol: Te # 139
    coordinates: [  0.644444444444444,  0.088888888888889,  0.311043656133034 ]
    mass: 127.600000
    reduced_to: 121
  - symbol: Te # 140
    coordinates: [  0.744444444444444,  0.188888888888889,  0.311043656133034 ]
    mass: 127.600000
    reduced_to: 121
  - symbol: Te # 141
    coordinates: [  0.677777777777777,  0.455555555555556,  0.311043656133034 ]
    mass: 127.600000
    reduced_to: 121
  - symbol: Te # 142
    coordinates: [  0.777777777777777,  0.555555555555556,  0.311043656133034 ]
    mass: 127.600000
    reduced_to: 121
  - symbol: Te # 143
    coordinates: [  0.877777777777777,  0.655555555555556,  0.311043656133034 ]
    mass: 127.600000
    reduced_to: 121
  - symbol: Te # 144
    coordinates: [  0.977777777777777,  0.755555555555556,  0.311043656133034 ]
    mass: 127.600000
    reduced_to: 121
  - symbol: Te # 145
    coordinates: [  0.077777777777777,  0.855555555555556,  0.311043656133034 ]
    mass: 127.600000
    reduced_to: 121
  - symbol: Te # 146
    coordinates: [  0.177777777777777,  0.955555555555556,  0.311043656133034 ]
    mass: 127.600000
    reduced_to: 121
  - symbol: Te # 147
    coordinates: [  0.277777777777777,  0.055555555555556,  0.311043656133034 ]
    mass: 127.600000
    reduced_to: 121
  - symbol: Te # 148
    coordinates: [  0.377777777777777,  0.155555555555556,  0.311043656133034 ]
    mass: 127.600000
    reduced_to: 121
  - symbol: Te # 149
    coordinates: [  0.477777777777777,  0.255555555555556,  0.311043656133034 ]
    mass: 127.600000
    reduced_to: 121
  - symbol: Te # 150
    coordinates: [  0.577777777777777,  0.355555555555556,  0.311043656133034 ]
    mass: 127.600000
    reduced_to: 121
  - symbol: Te # 151
    coordinates: [  0.011111111111110,  0.122222222222222,  0.137735026940902 ]
    mass: 127.600000
    reduced_to: 151
  - symbol: Te # 152
    coordinates: [  0.111111111111110,  0.222222222222222,  0.137735026940902 ]
    mass: 127.600000
    reduced_to: 151
  - symbol: Te # 153
    coordinates: [  0.211111111111110,  0.322222222222222,  0.137735026940902 ]
    mass: 127.600000
    reduced_to: 151
  - symbol: Te # 154
    coordinates: [  0.311111111111111,  0.422222222222222,  0.137735026940902 ]
    mass: 127.600000
    reduced_to: 151
  - symbol: Te # 155
    coordinates: [  0.411111111111110,  0.522222222222222,  0.137735026940902 ]
    mass: 127.600000
    reduced_to: 151
  - symbol: Te # 156
    coordinates: [  0.511111111111111,  0.622222222222222,  0.137735026940902 ]
    mass: 127.600000
    reduced_to: 151
  - symbol: Te # 157
    coordinates: [  0.611111111111111,  0.722222222222222,  0.137735026940902 ]
    mass: 127.600000
    reduced_to: 151
  - symbol: Te # 158
    coordinates: [  0.711111111111111,  0.822222222222222,  0.137735026940902 ]
    mass: 127.600000
    reduced_to: 151
  - symbol: Te # 159
    coordinates: [  0.811111111111111,  0.922222222222222,  0.137735026940902 ]
    mass: 127.600000
    reduced_to: 151
  - symbol: Te # 160
    coordinates: [  0.911111111111111,  0.022222222222222,  0.137735026940902 ]
    mass: 127.600000
    reduced_to: 151
  - symbol: Te # 161
    coordinates: [  0.844444444444444,  0.288888888888889,  0.137735026940902 ]
    mass: 127.600000
    reduced_to: 151
  - symbol: Te # 162
    coordinates: [  0.944444444444444,  0.388888888888889,  0.137735026940902 ]
    mass: 127.600000
    reduced_to: 151
  - symbol: Te # 163
    coordinates: [  0.044444444444444,  0.488888888888889,  0.137735026940902 ]
    mass: 127.600000
    reduced_to: 151
  - symbol: Te # 164
    coordinates: [  0.144444444444444,  0.588888888888889,  0.137735026940902 ]
    mass: 127.600000
    reduced_to: 151
  - symbol: Te # 165
    coordinates: [  0.244444444444444,  0.688888888888889,  0.137735026940902 ]
    mass: 127.600000
    reduced_to: 151
  - symbol: Te # 166
    coordinates: [  0.344444444444444,  0.788888888888889,  0.137735026940902 ]
    mass: 127.600000
    reduced_to: 151
  - symbol: Te # 167
    coordinates: [  0.444444444444444,  0.888888888888889,  0.137735026940902 ]
    mass: 127.600000
    reduced_to: 151
  - symbol: Te # 168
    coordinates: [  0.544444444444444,  0.988888888888889,  0.137735026940902 ]
    mass: 127.600000
    reduced_to: 151
  - symbol: Te # 169
    coordinates: [  0.644444444444444,  0.088888888888889,  0.137735026940902 ]
    mass: 127.600000
    reduced_to: 151
  - symbol: Te # 170
    coordinates: [  0.744444444444444,  0.188888888888889,  0.137735026940902 ]
    mass: 127.600000
    reduced_to: 151
  - symbol: Te # 171
    coordinates: [  0.677777777777777,  0.455555555555556,  0.137735026940902 ]
    mass: 127.600000
    reduced_to: 151
  - symbol: Te # 172
    coordinates: [  0.777777777777777,  0.555555555555556,  0.137735026940902 ]
    mass: 127.600000
    reduced_to: 151
  - symbol: Te # 173
    coordinates: [  0.877777777777777,  0.655555555555556,  0.137735026940902 ]
    mass: 127.600000
    reduced_to: 151
  - symbol: Te # 174
    coordinates: [  0.977777777777777,  0.755555555555556,  0.137735026940902 ]
    mass: 127.600000
    reduced_to: 151
  - symbol: Te # 175
    coordinates: [  0.077777777777777,  0.855555555555556,  0.137735026940902 ]
    mass: 127.600000
    reduced_to: 151
  - symbol: Te # 176
    coordinates: [  0.177777777777777,  0.955555555555556,  0.137735026940902 ]
    mass: 127.600000
    reduced_to: 151
  - symbol: Te # 177
    coordinates: [  0.277777777777777,  0.055555555555556,  0.137735026940902 ]
    mass: 127.600000
    reduced_to: 151
  - symbol: Te # 178
    coordinates: [  0.377777777777777,  0.155555555555556,  0.137735026940902 ]
    mass: 127.600000
    reduced_to: 151
  - symbol: Te # 179
    coordinates: [  0.477777777777777,  0.255555555555556,  0.137735026940902 ]
    mass: 127.600000
    reduced_to: 151
  - symbol: Te # 180
    coordinates: [  0.577777777777777,  0.355555555555556,  0.137735026940902 ]
    mass: 127.600000
    reduced_to: 151
  - symbol: Te # 181
    coordinates: [  0.011111111111110,  0.122222222222222,  0.556905148701705 ]
    mass: 127.600000
    reduced_to: 91
  - symbol: Te # 182
    coordinates: [  0.111111111111110,  0.222222222222222,  0.556905148701705 ]
    mass: 127.600000
    reduced_to: 91
  - symbol: Te # 183
    coordinates: [  0.211111111111110,  0.322222222222222,  0.556905148701705 ]
    mass: 127.600000
    reduced_to: 91
  - symbol: Te # 184
    coordinates: [  0.311111111111111,  0.422222222222222,  0.556905148701705 ]
    mass: 127.600000
    reduced_to: 91
  - symbol: Te # 185
    coordinates: [  0.411111111111110,  0.522222222222222,  0.556905148701705 ]
    mass: 127.600000
    reduced_to: 91
  - symbol: Te # 186
    coordinates: [  0.511111111111111,  0.622222222222222,  0.556905148701705 ]
    mass: 127.600000
    reduced_to: 91
  - symbol: Te # 187
    coordinates: [  0.611111111111111,  0.722222222222222,  0.556905148701705 ]
    mass: 127.600000
    reduced_to: 91
  - symbol: Te # 188