phonopy:
  version: "2.21.0"
  frequency_unit_conversion_factor: 15.633302
  symmetry_tolerance: 1.00000e-04

space_group:
  type: "Pnma"
  number: 62
  Hall_symbol: "-P 2ac 2n"

primitive_matrix:
- [  0.000000000000000,  1.000000000000000, -0.000000000000000 ]
- [  0.000000000000000,  0.000000000000000,  1.000000000000000 ]
- [  1.000000000000000,  0.000000000000000,  0.000000000000000 ]

supercell_matrix:
- [   5,   0,   0 ]
- [   0,   2,   0 ]
- [   0,   0,   2 ]

primitive_cell:
  lattice:
  - [     0.000000000000000,     0.000000000000000,    12.823269391149301 ] # a
  - [     4.029400902598868,     0.000000000000000,     0.000000000000000 ] # b
  - [    -0.000000000000001,    11.546310536102697,     0.000000000000001 ] # c
  points:
  - symbol: Sb # 1
    coordinates: [  0.137543863546470,  0.750000000000000,  0.036679111823744 ]
    mass: 121.760000
  - symbol: Sb # 2
    coordinates: [  0.862456136453530,  0.250000000000000,  0.963320888176256 ]
    mass: 121.760000
  - symbol: Sb # 3
    coordinates: [  0.362456136453530,  0.250000000000000,  0.536679111823744 ]
    mass: 121.760000
  - symbol: Sb # 4
    coordinates: [  0.637543863546470,  0.750000000000000,  0.463320888176256 ]
    mass: 121.760000
  - symbol: Sb # 5
    coordinates: [  0.035701551773169,  0.250000000000000,  0.331808393673543 ]
    mass: 121.760000
  - symbol: Sb # 6
    coordinates: [  0.964298448226831,  0.750000000000000,  0.668191606326457 ]
    mass: 121.760000
  - symbol: Sb # 7
    coordinates: [  0.464298448226831,  0.750000000000000,  0.831808393673543 ]
    mass: 121.760000
  - symbol: Sb # 8
    coordinates: [  0.535701551773169,  0.250000000000000,  0.168191606326457 ]
    mass: 121.760000
  - symbol: Se # 9
    coordinates: [  0.952425842628281,  0.750000000000000,  0.132785848390361 ]
    mass: 78.960000
  - symbol: Se # 10
    coordinates: [  0.047574157371719,  0.250000000000000,  0.867214151609639 ]
    mass: 78.960000
  - symbol: Se # 11
    coordinates: [  0.547574157371719,  0.250000000000000,  0.632785848390361 ]
    mass: 78.960000
  - symbol: Se # 12
    coordinates: [  0.452425842628282,  0.750000000000000,  0.367214151609639 ]
    mass: 78.960000
  - symbol: Se # 13
    coordinates: [  0.204224824998637,  0.250000000000000,  0.190814521402259 ]
    mass: 78.960000
  - symbol: Se # 14
    coordinates: [  0.795775175001363,  0.750000000000000,  0.809185478597741 ]
    mass: 78.960000
  - symbol: Se # 15
    coordinates: [  0.295775175001364,  0.750000000000000,  0.690814521402259 ]
    mass: 78.960000
  - symbol: Se # 16
    coordinates: [  0.704224824998637,  0.250000000000000,  0.309185478597741 ]
    mass: 78.960000
  - symbol: Se # 17
    coordinates: [  0.627540823058528,  0.750000000000000,  0.047657277608031 ]
    mass: 78.960000
  - symbol: Se # 18
    coordinates: [  0.372459176941472,  0.250000000000000,  0.952342722391962 ]
    mass: 78.960000
  - symbol: Se # 19
    coordinates: [  0.872459176941472,  0.250000000000000,  0.547657277608038 ]
    mass: 78.960000
  - symbol: Se # 20
    coordinates: [  0.127540823058528,  0.750000000000000,  0.452342722391962 ]
    mass: 78.960000
  reciprocal_lattice: # without 2pi
  - [    -0.000000000000000,    -0.000000000000000,     0.077983232629442 ] # a*
  - [     0.248175851490732,     0.000000000000000,     0.000000000000000 ] # b*
  - [     0.000000000000000,     0.086607752049733,     0.000000000000000 ] # c*

unit_cell:
  lattice:
  - [     4.029400902598868,     0.000000000000000,     0.000000000000000 ] # a
  - [    -0.000000000000001,    11.546310536102697,     0.000000000000001 ] # b
  - [     0.000000000000000,    -0.000000000000000,    12.823269391149301 ] # c
  points:
  - symbol: Sb # 1
    coordinates: [  0.750000000000000,  0.036679111823744,  0.137543863546470 ]
    mass: 121.760000
    reduced_to: 1
  - symbol: Sb # 2
    coordinates: [  0.250000000000000,  0.963320888176256,  0.862456136453530 ]
    mass: 121.760000
    reduced_to: 2
  - symbol: Sb # 3
    coordinates: [  0.250000000000000,  0.536679111823744,  0.362456136453530 ]
    mass: 121.760000
    reduced_to: 3
  - symbol: Sb # 4
    coordinates: [  0.750000000000000,  0.463320888176256,  0.637543863546470 ]
    mass: 121.760000
    reduced_to: 4
  - symbol: Sb # 5
    coordinates: [  0.250000000000000,  0.331808393673543,  0.035701551773169 ]
    mass: 121.760000
    reduced_to: 5
  - symbol: Sb # 6
    coordinates: [  0.750000000000000,  0.668191606326457,  0.964298448226831 ]
    mass: 121.760000
    reduced_to: 6
  - symbol: Sb # 7
    coordinates: [  0.750000000000000,  0.831808393673543,  0.464298448226831 ]
    mass: 121.760000
    reduced_to: 7
  - symbol: Sb # 8
    coordinates: [  0.250000000000000,  0.168191606326457,  0.535701551773169 ]
    mass: 121.760000
    reduced_to: 8
  - symbol: Se # 9
    coordinates: [  0.750000000000000,  0.132785848390361,  0.952425842628281 ]
    mass: 78.960000
    reduced_to: 9
  - symbol: Se # 10
    coordinates: [  0.250000000000000,  0.867214151609639,  0.047574157371719 ]
    mass: 78.960000
    reduced_to: 10
  - symbol: Se # 11
    coordinates: [  0.250000000000000,  0.632785848390361,  0.547574157371719 ]
    mass: 78.960000
    reduced_to: 11
  - symbol: Se # 12
    coordinates: [  0.750000000000000,  0.367214151609639,  0.452425842628282 ]
    mass: 78.960000
    reduced_to: 12
  - symbol: Se # 13
    coordinates: [  0.250000000000000,  0.190814521402259,  0.204224824998637 ]
    mass: 78.960000
    reduced_to: 13
  - symbol: Se # 14
    coordinates: [  0.750000000000000,  0.809185478597741,  0.795775175001363 ]
    mass: 78.960000
    reduced_to: 14
  - symbol: Se # 15
    coordinates: [  0.750000000000000,  0.690814521402259,  0.295775175001364 ]
    mass: 78.960000
    reduced_to: 15
  - symbol: Se # 16
    coordinates: [  0.250000000000000,  0.309185478597741,  0.704224824998637 ]
    mass: 78.960000
    reduced_to: 16
  - symbol: Se # 17
    coordinates: [  0.750000000000000,  0.047657277608031,  0.627540823058528 ]
    mass: 78.960000
    reduced_to: 17
  - symbol: Se # 18
    coordinates: [  0.250000000000000,  0.952342722391962,  0.372459176941472 ]
    mass: 78.960000
    reduced_to: 18
  - symbol: Se # 19
    coordinates: [  0.250000000000000,  0.547657277608038,  0.872459176941472 ]
    mass: 78.960000
    reduced_to: 19
  - symbol: Se # 20
    coordinates: [  0.750000000000000,  0.452342722391962,  0.127540823058528 ]
    mass: 78.960000
    reduced_to: 20

supercell:
  lattice:
  - [    20.147004512994336,     0.000000000000000,     0.000000000000001 ] # a
  - [    -0.000000000000001,    23.092621072205393,     0.000000000000001 ] # b
  - [     0.000000000000000,     0.000000000000000,    25.646538782298602 ] # c
  points:
  - symbol: Sb # 1
    coordinates: [  0.150000000000000,  0.018339555911872,  0.068771931773235 ]
    mass: 121.760000
    reduced_to: 1
  - symbol: Sb # 2
    coordinates: [  0.350000000000000,  0.018339555911872,  0.068771931773235 ]
    mass: 121.760000
    reduced_to: 1
  - symbol: Sb # 3
    coordinates: [  0.550000000000000,  0.018339555911872,  0.068771931773235 ]
    mass: 121.760000
    reduced_to: 1
  - symbol: Sb # 4
    coordinates: [  0.750000000000000,  0.018339555911872,  0.068771931773235 ]
    mass: 121.760000
    reduced_to: 1
  - symbol: Sb # 5
    coordinates: [  0.950000000000000,  0.018339555911872,  0.068771931773235 ]
    mass: 121.760000
    reduced_to: 1
  - symbol: Sb # 6
    coordinates: [  0.150000000000000,  0.518339555911872,  0.068771931773235 ]
    mass: 121.760000
    reduced_to: 1
  - symbol: Sb # 7
    coordinates: [  0.350000000000000,  0.518339555911872,  0.068771931773235 ]
    mass: 121.760000
    reduced_to: 1
  - symbol: Sb # 8
    coordinates: [  0.550000000000000,  0.518339555911872,  0.068771931773235 ]
    mass: 121.760000
    reduced_to: 1
  - symbol: Sb # 9
    coordinates: [  0.750000000000000,  0.518339555911872,  0.068771931773235 ]
    mass: 121.760000
    reduced_to: 1
  - symbol: Sb # 10
    coordinates: [  0.950000000000000,  0.518339555911872,  0.068771931773235 ]
    mass: 121.760000
    reduced_to: 1
  - symbol: Sb # 11
    coordinates: [  0.150000000000000,  0.018339555911872,  0.568771931773235 ]
    mass: 121.760000
    reduced_to: 1
  - symbol: Sb # 12
    coordinates: [  0.350000000000000,  0.018339555911872,  0.568771931773235 ]
    mass: 121.760000
    reduced_to: 1
  - symbol: Sb # 13
    coordinates: [  0.550000000000000,  0.018339555911872,  0.568771931773235 ]
    mass: 121.760000
    reduced_to: 1
  - symbol: Sb # 14
    coordinates: [  0.750000000000000,  0.018339555911872,  0.568771931773235 ]
    mass: 121.760000
    reduced_to: 1
  - symbol: Sb # 15
    coordinates: [  0.950000000000000,  0.018339555911872,  0.568771931773235 ]
    mass: 121.760000
    reduced_to: 1
  - symbol: Sb # 16
    coordinates: [  0.150000000000000,  0.518339555911872,  0.568771931773235 ]
    mass: 121.760000
    reduced_to: 1
  - symbol: Sb # 17
    coordinates: [  0.350000000000000,  0.518339555911872,  0.568771931773235 ]
    mass: 121.760000
    reduced_to: 1
  - symbol: Sb # 18
    coordinates: [  0.550000000000000,  0.518339555911872,  0.568771931773235 ]
    mass: 121.760000
    reduced_to: 1
  - symbol: Sb # 19
    coordinates: [  0.750000000000000,  0.518339555911872,  0.568771931773235 ]
    mass: 121.760000
    reduced_to: 1
  - symbol: Sb # 20
    coordinates: [  0.950000000000000,  0.518339555911872,  0.568771931773235 ]
    mass: 121.760000
    reduced_to: 1
  - symbol: Sb # 21
    coordinates: [  0.050000000000000,  0.481660444088128,  0.431228068226765 ]
    mass: 121.760000
    reduced_to: 21
  - symbol: Sb # 22
    coordinates: [  0.250000000000000,  0.481660444088128,  0.431228068226765 ]
    mass: 121.760000
    reduced_to: 21
  - symbol: Sb # 23
    coordinates: [  0.450000000000000,  0.481660444088128,  0.431228068226765 ]
    mass: 121.760000
    reduced_to: 21
  - symbol: Sb # 24
    coordinates: [  0.650000000000000,  0.481660444088128,  0.431228068226765 ]
    mass: 121.760000
    reduced_to: 21
  - symbol: Sb # 25
    coordinates: [  0.850000000000000,  0.481660444088128,  0.431228068226765 ]
    mass: 121.760000
    reduced_to: 21
  - symbol: Sb # 26
    coordinates: [  0.050000000000000,  0.981660444088128,  0.431228068226765 ]
    mass: 121.760000
    reduced_to: 21
  - symbol: Sb # 27
    coordinates: [  0.250000000000000,  0.981660444088128,  0.431228068226765 ]
    mass: 121.760000
    reduced_to: 21
  - symbol: Sb # 28
    coordinates: [  0.450000000000000,  0.981660444088128,  0.431228068226765 ]
    mass: 121.760000
    reduced_to: 21
  - symbol: Sb # 29
    coordinates: [  0.650000000000000,  0.981660444088128,  0.431228068226765 ]
    mass: 121.760000
    reduced_to: 21
  - symbol: Sb # 30
    coordinates: [  0.850000000000000,  0.981660444088128,  0.431228068226765 ]
    mass: 121.760000
    reduced_to: 21
  - symbol: Sb # 31
    coordinates: [  0.050000000000000,  0.481660444088128,  0.931228068226765 ]
    mass: 121.760000
    reduced_to: 21
  - symbol: Sb # 32
    coordinates: [  0.250000000000000,  0.481660444088128,  0.931228068226765 ]
    mass: 121.760000
    reduced_to: 21
  - symbol: Sb # 33
    coordinates: [  0.450000000000000,  0.481660444088128,  0.931228068226765 ]
    mass: 121.760000
    reduced_to: 21
  - symbol: Sb # 34
    coordinates: [  0.650000000000000,  0.481660444088128,  0.931228068226765 ]
    mass: 121.760000
    reduced_to: 21
  - symbol: Sb # 35
    coordinates: [  0.850000000000000,  0.481660444088128,  0.931228068226765 ]
    mass: 121.760000
    reduced_to: 21
  - symbol: Sb # 36
    coordinates: [  0.050000000000000,  0.981660444088128,  0.931228068226765 ]
    mass: 121.760000
    reduced_to: 21
  - symbol: Sb # 37
    coordinates: [  0.250000000000000,  0.981660444088128,  0.931228068226765 ]
    mass: 121.760000
    reduced_to: 21
  - symbol: Sb # 38
    coordinates: [  0.450000000000000,  0.981660444088128,  0.931228068226765 ]
    mass: 121.760000
    reduced_to: 21
  - symbol: Sb # 39
    coordinates: [  0.650000000000000,  0.981660444088128,  0.931228068226765 ]
    mass: 121.760000
    reduced_to: 21
  - symbol: Sb # 40
    coordinates: [  0.850000000000000,  0.981660444088128,  0.931228068226765 ]
    mass: 121.760000
    reduced_to: 21
  - symbol: Sb # 41
    coordinates: [  0.050000000000000,  0.268339555911872,  0.181228068226765 ]
    mass: 121.760000
    reduced_to: 41
  - symbol: Sb # 42
    coordinates: [  0.250000000000000,  0.268339555911872,  0.181228068226765 ]
    mass: 121.760000
    reduced_to: 41
  - symbol: Sb # 43
    coordinates: [  0.450000000000000,  0.268339555911872,  0.181228068226765 ]
    mass: 121.760000
    reduced_to: 41
  - symbol: Sb # 44
    coordinates: [  0.650000000000000,  0.268339555911872,  0.181228068226765 ]
    mass: 121.760000
    reduced_to: 41
  - symbol: Sb # 45
    coordinates: [  0.850000000000000,  0.268339555911872,  0.181228068226765 ]
    mass: 121.760000
    reduced_to: 41
  - symbol: Sb # 46
    coordinates: [  0.050000000000000,  0.768339555911872,  0.181228068226765 ]
    mass: 121.760000
    reduced_to: 41
  - symbol: Sb # 47
    coordinates: [  0.250000000000000,  0.768339555911872,  0.181228068226765 ]
    mass: 121.760000
    reduced_to: 41
  - symbol: Sb # 48
    coordinates: [  0.450000000000000,  0.768339555911872,  0.181228068226765 ]
    mass: 121.760000
    reduced_to: 41
  - symbol: Sb # 49
    coordinates: [  0.650000000000000,  0.768339555911872,  0.181228068226765 ]
    mass: 121.760000
    reduced_to: 41
  - symbol: Sb # 50
    coordinates: [  0.850000000000000,  0.768339555911872,  0.181228068226765 ]
    mass: 121.760000
    reduced_to: 41
  - symbol: Sb # 51
    coordinates: [  0.050000000000000,  0.268339555911872,  0.681228068226765 ]
    mass: 121.760000
    reduced_to: 41
  - symbol: Sb # 52
    coordinates: [  0.250000000000000,  0.268339555911872,  0.681228068226765 ]
    mass: 121.760000
    reduced_to: 41
  - symbol: Sb # 53
    coordinates: [  0.450000000000000,  0.268339555911872,  0.681228068226765 ]
    mass: 121.760000
    reduced_to: 41
  - symbol: Sb # 54
    coordinates: [  0.650000000000000,  0.268339555911872,  0.681228068226765 ]
    mass: 121.760000
    reduced_to: 41
  - symbol: Sb # 55
    coordinates: [  0.850000000000000,  0.268339555911872,  0.681228068226765 ]
    mass: 121.760000
    reduced_to: 41
  - symbol: Sb # 56
    coordinates: [  0.050000000000000,  0.768339555911872,  0.681228068226765 ]
    mass: 121.760000
    reduced_to: 41
  - symbol: Sb # 57
    coordinates: [  0.250000000000000,  0.768339555911872,  0.681228068226765 ]
    mass: 121.760000
    reduced_to: 41
  - symbol: Sb # 58
    coordinates: [  0.450000000000000,  0.768339555911872,  0.681228068226765 ]
    mass: 121.760000
    reduced_to: 41
  - symbol: Sb # 59
    coordinates: [  0.650000000000000,  0.768339555911872,  0.681228068226765 ]
    mass: 121.760000
    reduced_to: 41
  - symbol: Sb # 60
    coordinates: [  0.850000000000000,  0.768339555911872,  0.681228068226765 ]
    mass: 121.760000
    reduced_to: 41
  - symbol: Sb # 61
    coordinates: [  0.150000000000000,  0.231660444088128,  0.318771931773235 ]
    mass: 121.760000
    reduced_to: 61
  - symbol: Sb # 62
    coordinates: [  0.350000000000000,  0.231660444088128,  0.318771931773235 ]
    mass: 121.760000
    reduced_to: 61
  - symbol: Sb # 63
    coordinates: [  0.550000000000000,  0.231660444088128,  0.318771931773235 ]
    mass: 121.760000
    reduced_to: 61
  - symbol: Sb # 64
    coordinates: [  0.750000000000000,  0.231660444088128,  0.318771931773235 ]
    mass: 121.760000
    reduced_to: 61
  - symbol: Sb # 65
    coordinates: [  0.950000000000000,  0.231660444088128,  0.318771931773235 ]
    mass: 121.760000
    reduced_to: 61
  - symbol: Sb # 66
    coordinates: [  0.150000000000000,  0.731660444088128,  0.318771931773235 ]
    mass: 121.760000
    reduced_to: 61
  - symbol: Sb # 67
    coordinates: [  0.350000000000000,  0.731660444088128,  0.318771931773235 ]
    mass: 121.760000
    reduced_to: 61
  - symbol: Sb # 68
    coordinates: [  0.550000000000000,  0.731660444088128,  0.318771931773235 ]
    mass: 121.760000
    reduced_to: 61
  - symbol: Sb # 69
    coordinates: [  0.750000000000000,  0.731660444088128,  0.318771931773235 ]
    mass: 121.760000
    reduced_to: 61
  - symbol: Sb # 70
    coordinates: [  0.950000000000000,  0.731660444088128,  0.318771931773235 ]
    mass: 121.760000
    reduced_to: 61
  - symbol: Sb # 71
    coordinates: [  0.150000000000000,  0.231660444088128,  0.818771931773235 ]
    mass: 121.760000
    reduced_to: 61
  - symbol: Sb # 72
    coordinates: [  0.350000000000000,  0.231660444088128,  0.818771931773235 ]
    mass: 121.760000
    reduced_to: 61
  - symbol: Sb # 73
    coordinates: [  0.550000000000000,  0.231660444088128,  0.818771931773235 ]
    mass: 121.760000
    reduced_to: 61
  - symbol: Sb # 74
    coordinates: [  0.750000000000000,  0.231660444088128,  0.818771931773235 ]
    mass: 121.760000
    reduced_to: 61
  - symbol: Sb # 75
    coordinates: [  0.950000000000000,  0.231660444088128,  0.818771931773235 ]
    mass: 121.760000
    reduced_to: 61
  - symbol: Sb # 76
    coordinates: [  0.150000000000000,  0.731660444088128,  0.818771931773235 ]
    mass: 121.760000
    reduced_to: 61
  - symbol: Sb # 77
    coordinates: [  0.350000000000000,  0.731660444088128,  0.818771931773235 ]
    mass: 121.760000
    reduced_to: 61
  - symbol: Sb # 78
    coordinates: [  0.550000000000000,  0.731660444088128,  0.818771931773235 ]
    mass: 121.760000
    reduced_to: 61
  - symbol: Sb # 79
    coordinates: [  0.750000000000000,  0.731660444088128,  0.818771931773235 ]
    mass: 121.760000
    reduced_to: 61
  - symbol: Sb # 80
    coordinates: [  0.950000000000000,  0.731660444088128,  0.818771931773235 ]
    mass: 121.760000
    reduced_to: 61
  - symbol: Sb # 81
    coordinates: [  0.050000000000000,  0.165904196836771,  0.017850775886585 ]
    mass: 121.760000
    reduced_to: 81
  - symbol: Sb # 82
    coordinates: [  0.250000000000000,  0.165904196836771,  0.017850775886585 ]
    mass: 121.760000
    reduced_to: 81
  - symbol: Sb # 83
    coordinates: [  0.450000000000000,  0.165904196836771,  0.017850775886585 ]
    mass: 121.760000
    reduced_to: 81
  - symbol: Sb # 84
    coordinates: [  0.650000000000000,  0.165904196836771,  0.017850775886585 ]
    mass: 121.760000
    reduced_to: 81
  - symbol: Sb # 85
    coordinates: [  0.850000000000000,  0.165904196836771,  0.017850775886585 ]
    mass: 121.760000
    reduced_to: 81
  - symbol: Sb # 86
    coordinates: [  0.050000000000000,  0.665904196836771,  0.017850775886585 ]
    mass: 121.760000
    reduced_to: 81
  - symbol: Sb # 87
    coordinates: [  0.250000000000000,  0.665904196836771,  0.017850775886585 ]
    mass: 121.760000
    reduced_to: 81
  - symbol: Sb # 88
    coordinates: [  0.450000000000000,  0.665904196836771,  0.017850775886585 ]
    mass: 121.760000
    reduced_to: 81
  - symbol: Sb # 89
    coordinates: [  0.650000000000000,  0.665904196836771,  0.017850775886585 ]
    mass: 121.760000
    reduced_to: 81
  - symbol: Sb # 90
    coordinates: [  0.850000000000000,  0.665904196836771,  0.017850775886585 ]
    mass: 121.760000
    reduced_to: 81
  - symbol: Sb # 91
    coordinates: [  0.050000000000000,  0.165904196836771,  0.517850775886585 ]
    mass: 121.760000
    reduced_to: 81
  - symbol: Sb # 92
    coordinates: [  0.250000000000000,  0.165904196836771,  0.517850775886585 ]
    mass: 121.760000
    reduced_to: 81
  - symbol: Sb # 93
    coordinates: [  0.450000000000000,  0.165904196836771,  0.517850775886585 ]
    mass: 121.760000
    reduced_to: 81
  - symbol: Sb # 94
    coordinates: [  0.650000000000000,  0.165904196836771,  0.517850775886585 ]
    mass: 121.760000
    reduced_to: 81
  - symbol: Sb # 95
    coordinates: [  0.850000000000000,  0.165904196836771,  0.517850775886585 ]
    mass: 121.760000
    reduced_to: 81
  - symbol: Sb # 96
    coordinates: [  0.050000000000000,  0.665904196836771,  0.517850775886585 ]
    mass: 121.760000
    reduced_to: 81
  - symbol: Sb # 97
    coordinates: [  0.250000000000000,  0.665904196836771,  0.517850775886585 ]
    mass: 121.760000
    reduced_to: 81
  - symbol: Sb # 98
    coordinates: [  0.450000000000000,  0.665904196836771,  0.517850775886585 ]
    mass: 121.760000
    reduced_to: 81
  - symbol: Sb # 99
    coordinates: [  0.650000000000000,  0.665904196836771,  0.517850775886585 ]
    mass: 121.760000
    reduced_to: 81
  - symbol: Sb # 100
    coordinates: [  0.850000000000000,  0.665904196836771,  0.517850775886585 ]
    mass: 121.760000
    reduced_to: 81
  - symbol: Sb # 101
    coordinates: [  0.150000000000000,  0.334095803163229,  0.482149224113415 ]
    mass: 121.760000
    reduced_to: 101
  - symbol: Sb # 102
    coordinates: [  0.350000000000000,  0.334095803163229,  0.482149224113415 ]
    mass: 121.760000
    reduced_to: 101
  - symbol: Sb # 103
    coordinates: [  0.550000000000000,  0.334095803163229,  0.482149224113415 ]
    mass: 121.760000
    reduced_to: 101
  - symbol: Sb # 104
    coordinates: [  0.750000000000000,  0.334095803163229,  0.482149224113415 ]
    mass: 121.760000
    reduced_to: 101
  - symbol: Sb # 105
    coordinates: [  0.950000000000000,  0.334095803163229,  0.482149224113415 ]
    mass: 121.760000
    reduced_to: 101
  - symbol: Sb # 106
    coordinates: [  0.150000000000000,  0.834095803163229,  0.482149224113415 ]
    mass: 121.760000
    reduced_to: 101
  - symbol: Sb # 107
    coordinates: [  0.350000000000000,  0.834095803163229,  0.482149224113415 ]
    mass: 121.760000
    reduced_to: 101
  - symbol: Sb # 108
    coordinates: [  0.550000000000000,  0.834095803163229,  0.482149224113415 ]
    mass: 121.760000
    reduced_to: 101
  - symbol: Sb # 109
    coordinates: [  0.750000000000000,  0.834095803163229,  0.482149224113415 ]
    mass: 121.760000
    reduced_to: 101
  - symbol: Sb # 110
    coordinates: [  0.950000000000000,  0.834095803163229,  0.482149224113415 ]
    mass: 121.760000
    reduced_to: 101
  - symbol: Sb # 111
    coordinates: [  0.150000000000000,  0.334095803163229,  0.982149224113415 ]
    mass: 121.760000
    reduced_to: 101
  - symbol: Sb # 112
    coordinates: [  0.350000000000000,  0.334095803163229,  0.982149224113415 ]
    mass: 121.760000
    reduced_to: 101
  - symbol: Sb # 113
    coordinates: [  0.550000000000000,  0.334095803163229,  0.982149224113415 ]
    mass: 121.760000
    reduced_to: 101
  - symbol: Sb # 114
    coordinates: [  0.750000000000000,  0.334095803163229,  0.982149224113415 ]
    mass: 121.760000
    reduced_to: 101
  - symbol: Sb # 115
    coordinates: [  0.950000000000000,  0.334095803163229,  0.982149224113415 ]
    mass: 121.760000
    reduced_to: 101
  - symbol: Sb # 116
    coordinates: [  0.150000000000000,  0.834095803163229,  0.982149224113415 ]
    mass: 121.760000
    reduced_to: 101
  - symbol: Sb # 117
    coordinates: [  0.350000000000000,  0.834095803163229,  0.982149224113415 ]
    mass: 121.760000
    reduced_to: 101
  - symbol: Sb # 118
    coordinates: [  0.550000000000000,  0.834095803163229,  0.982149224113415 ]
    mass: 121.760000
    reduced_to: 101
  - symbol: Sb # 119
    coordinates: [  0.750000000000000,  0.834095803163229,  0.982149224113415 ]
    mass: 121.760000
    reduced_to: 101
  - symbol: Sb # 120
    coordinates: [  0.950000000000000,  0.834095803163229,  0.982149224113415 ]
    mass: 121.760000
    reduced_to: 101
  - symbol: Sb # 121
    coordinates: [  0.150000000000000,  0.415904196836771,  0.232149224113415 ]
    mass: 121.760000
    reduced_to: 121
  - symbol: Sb # 122
    coordinates: [  0.350000000000000,  0.415904196836771,  0.232149224113415 ]
    mass: 121.760000
    reduced_to: 121
  - symbol: Sb # 123
    coordinates: [  0.550000000000000,  0.415904196836771,  0.232149224113415 ]
    mass: 121.760000
    reduced_to: 121
  - symbol: Sb # 124
    coordinates: [  0.750000000000000,  0.415904196836771,  0.232149224113415 ]
    mass: 121.760000
    reduced_to: 121
  - symbol: Sb # 125
    coordinates: [  0.950000000000000,  0.415904196836771,  0.232149224113415 ]
    mass: 121.760000
    reduced_to: 121
  - symbol: Sb # 126
    coordinates: [  0.150000000000000,  0.915904196836771,  0.232149224113415 ]
    mass: 121.760000
    reduced_to: 121
  - symbol: Sb # 127
    coordinates: [  0.350000000000000,  0.915904196836771,  0.232149224113415 ]
    mass: 121.760000
    reduced_to: 121
  - symbol: Sb # 128
    coordinates: [  0.550000000000000,  0.915904196836771,  0.232149224113415 ]
    mass: 121.760000
    reduced_to: 121
  - symbol: Sb # 129
    coordinates: [  0.750000000000000,  0.915904196836771,  0.232149224113415 ]
    mass: 121.760000
    reduced_to: 121
  - symbol: Sb # 130
    coordinates: [  0.950000000000000,  0.915904196836771,  0.232149224113415 ]
    mass: 121.760000
    reduced_to: 121
  - symbol: Sb # 131
    coordinates: [  0.150000000000000,  0.415904196836771,  0.732149224113415 ]
    mass: 121.760000
    reduced_to: 121
  - symbol: Sb # 132
    coordinates: [  0.350000000000000,  0.415904196836771,  0.732149224113415 ]
    mass: 121.760000
    reduced_to: 121
  - symbol: Sb # 133
    coordinates: [  0.550000000000000,  0.415904196836771,  0.732149224113415 ]
    mass: 121.760000
    reduced_to: 121
  - symbol: Sb # 134
    coordinates: [  0.750000000000000,  0.415904196836771,  0.732149224113415 ]
    mass: 121.760000
    reduced_to: 121
  - symbol: Sb # 135
    coordinates: [  0.950000000000000,  0.415904196836771,  0.732149224113415 ]
    mass: 121.760000
    reduced_to: 121
  - symbol: Sb # 136
    coordinates: [  0.150000000000000,  0.915904196836771,  0.732149224113415 ]
    mass: 121.760000
    reduced_to: 121
  - symbol: Sb # 137
    coordinates: [  0.350000000000000,  0.915904196836771,  0.732149224113415 ]
    mass: 121.760000
    reduced_to: 121
  - symbol: Sb # 138
    coordinates: [  0.550000000000000,  0.915904196836771,  0.732149224113415 ]
    mass: 121.760000
    reduced_to: 121
  - symbol: Sb # 139
    coordinates: [  0.750000000000000,  0.915904196836771,  0.732149224113415 ]
    mass: 121.760000
    reduced_to: 121
  - symbol: Sb # 140
    coordinates: [  0.950000000000000,  0.915904196836771,  0.732149224113415 ]
    mass: 121.760000
    reduced_to: 121
  - symbol: Sb # 141
    coordinates: [  0.050000000000000,  0.084095803163229,  0.267850775886585 ]
    mass: 121.760000
    reduced_to: 141
  - symbol: Sb # 142
    coordinates: [  0.250000000000000,  0.084095803163229,  0.267850775886585 ]
    mass: 121.760000
    reduced_to: 141
  - symbol: Sb # 143
    coordinates: [  0.450000000000000,  0.084095803163229,  0.267850775886585 ]
    mass: 121.760000
    reduced_to: 141
  - symbol: Sb # 144
    coordinates: [  0.650000000000000,  0.084095803163229,  0.267850775886585 ]
    mass: 121.760000
    reduced_to: 141
  - symbol: Sb # 145
    coordinates: [  0.850000000000000,  0.084095803163229,  0.267850775886585 ]
    mass: 121.760000
    reduced_to: 141
  - symbol: Sb # 146
    coordinates: [  0.050000000000000,  0.584095803163229,  0.267850775886585 ]
    mass: 121.760000
    reduced_to: 141
  - symbol: Sb # 147
    coordinates: [  0.250000000000000,  0.584095803163229,  0.267850775886585 ]
    mass: 121.760000
    reduced_to: 141
  - symbol: Sb # 148
    coordinates: [  0.450000000000000,  0.584095803163229,  0.267850775886585 ]
    mass: 121.760000
    reduced_to: 141
  - symbol: Sb # 149
    coordinates: [  0.650000000000000,  0.584095803163229,  0.267850775886585 ]
    mass: 121.760000
    reduced_to: 141
  - symbol: Sb # 150
    coordinates: [  0.850000000000000,  0.584095803163229,  0.267850775886585 ]
    mass: 121.760000
    reduced_to: 141
  - symbol: Sb # 151
    coordinates: [  0.050000000000000,  0.084095803163229,  0.767850775886585 ]
    mass: 121.760000
    reduced_to: 141
  - symbol: Sb # 152
    coordinates: [  0.250000000000000,  0.084095803163229,  0.767850775886585 ]
    mass: 121.760000
    reduced_to: 141
  - symbol: Sb # 153
    coordinates: [  0.450000000000000,  0.084095803163229,  0.767850775886585 ]
    mass: 121.760000
    reduced_to: 141
  - symbol: Sb # 154
    coordinates: [  0.650000000000000,  0.084095803163229,  0.767850775886585 ]
    mass: 121.760000
    reduced_to: 141
  - symbol: Sb # 155
    coordinates: [  0.850000000000000,  0.084095803163229,  0.767850775886585 ]
    mass: 121.760000
    reduced_to: 141
  - symbol: Sb # 156
    coordinates: [  0.050000000000000,  0.584095803163229,  0.767850775886585 ]
    mass: 121.760000
    reduced_to: 141
  - symbol: Sb # 157
    coordinates: [  0.250000000000000,  0.584095803163229,  0.767850775886585 ]
    mass: 121.760000
    reduced_to: 141
  - symbol: Sb # 158
    coordinates: [  0.450000000000000,  0.584095803163229,  0.767850775886585 ]
    mass: 121.760000
    reduced_to: 141
  - symbol: Sb # 159
    coordinates: [  0.650000000000000,  0.584095803163229,  0.767850775886585 ]
    mass: 121.760000
    reduced_to: 141
  - symbol: Sb # 160
    coordinates: [  0.850000000000000,  0.584095803163229,  0.767850775886585 ]
    mass: 121.760000
    reduced_to: 141
  - symbol: Se # 161
    coordinates: [  0.150000000000000,  0.066392924195181,  0.476212921314141 ]
    mass: 78.960000
    reduced_to: 161
  - symbol: Se # 162
    coordinates: [  0.350000000000000,  0.066392924195181,  0.476212921314141 ]
    mass: 78.960000
    reduced_to: 161
  - symbol: Se # 163
    coordinates: [  0.550000000000000,  0.066392924195181,  0.476212921314141 ]
    mass: 78.960000
    reduced_to: 161
  - symbol: Se # 164
    coordinates: [  0.750000000000000,  0.066392924195181,  0.476212921314141 ]
    mass: 78.960000
    reduced_to: 161
  - symbol: Se # 165
    coordinates: [  0.950000000000000,  0.066392924195181,  0.476212921314141 ]
    mass: 78.960000
    reduced_to: 161
  - symbol: Se # 166