phonopy:
  version: "2.21.0"
  frequency_unit_conversion_factor: 15.633302
  symmetry_tolerance: 1.00000e-04

space_group:
  type: "Pnma"
  number: 62
  Hall_symbol: "-P 2ac 2n"

primitive_matrix:
- [  0.000000000000000,  1.000000000000000, -0.000000000000000 ]
- [  0.000000000000000, -0.000000000000000,  1.000000000000000 ]
- [  1.000000000000000, -0.000000000000000,  0.000000000000000 ]

supercell_matrix:
- [   5,   0,   0 ]
- [   0,   5,   0 ]
- [   0,   0,   2 ]

primitive_cell:
  lattice:
  - [     0.000000000000000,     0.000000000000000,    11.440859684133397 ] # a
  - [     4.021934523410843,    -0.000000000000000,     0.000000000000000 ] # b
  - [    -0.000000000000000,     4.448929579064563,     0.000000000000000 ] # c
  points:
  - symbol: Sn # 1
    coordinates: [  0.621566344993091,  0.250000000000000,  0.371377411875017 ]
    mass: 118.710000
  - symbol: Sn # 2
    coordinates: [  0.378433655006909,  0.750000000000000,  0.628622588124983 ]
    mass: 118.710000
  - symbol: Sn # 3
    coordinates: [  0.878433655006909,  0.750000000000000,  0.871377411875017 ]
    mass: 118.710000
  - symbol: Sn # 4
    coordinates: [  0.121566344993084,  0.250000000000000,  0.128622588124983 ]
    mass: 118.710000
  - symbol: S  # 5
    coordinates: [  0.349963754947528,  0.250000000000000,  0.022161360236473 ]
    mass: 32.065000
  - symbol: S  # 6
    coordinates: [  0.650036245052472,  0.750000000000000,  0.977838639763526 ]
    mass: 32.065000
  - symbol: S  # 7
    coordinates: [  0.150036245052472,  0.750000000000000,  0.522161360236473 ]
    mass: 32.065000
  - symbol: S  # 8
    coordinates: [  0.849963754947528,  0.250000000000000,  0.477838639763527 ]
    mass: 32.065000
  reciprocal_lattice: # without 2pi
  - [    -0.000000000000000,    -0.000000000000000,     0.087406019093726 ] # a*
  - [     0.248636568839997,     0.000000000000000,     0.000000000000000 ] # b*
  - [     0.000000000000000,     0.224773168967593,     0.000000000000000 ] # c*

unit_cell:
  lattice:
  - [     4.021934523410843,    -0.000000000000000,     0.000000000000000 ] # a
  - [    -0.000000000000000,     4.448929579064561,     0.000000000000000 ] # b
  - [     0.000000000000000,     0.000000000000000,    11.440859684133395 ] # c
  points:
  - symbol: Sn # 1
    coordinates: [  0.250000000000000,  0.371377411875017,  0.621566344993091 ]
    mass: 118.710000
    reduced_to: 1
  - symbol: Sn # 2
    coordinates: [  0.750000000000000,  0.628622588124983,  0.378433655006909 ]
    mass: 118.710000
    reduced_to: 2
  - symbol: Sn # 3
    coordinates: [  0.750000000000000,  0.871377411875017,  0.878433655006909 ]
    mass: 118.710000
    reduced_to: 3
  - symbol: Sn # 4
    coordinates: [  0.250000000000000,  0.128622588124983,  0.121566344993084 ]
    mass: 118.710000
    reduced_to: 4
  - symbol: S  # 5
    coordinates: [  0.250000000000000,  0.022161360236473,  0.349963754947528 ]
    mass: 32.065000
    reduced_to: 5
  - symbol: S  # 6
    coordinates: [  0.750000000000000,  0.977838639763527,  0.650036245052472 ]
    mass: 32.065000
    reduced_to: 6
  - symbol: S  # 7
    coordinates: [  0.750000000000000,  0.522161360236473,  0.150036245052472 ]
    mass: 32.065000
    reduced_to: 7
  - symbol: S  # 8
    coordinates: [  0.250000000000000,  0.477838639763527,  0.849963754947528 ]
    mass: 32.065000
    reduced_to: 8

supercell:
  lattice:
  - [    20.109672617054212,    -0.000000000000002,     0.000000000000001 ] # a
  - [    -0.000000000000001,    22.244647895322807,     0.000000000000001 ] # b
  - [     0.000000000000000,     0.000000000000000,    22.881719368266790 ] # c
  points:
  - symbol: Sn # 1
    coordinates: [  0.050000000000000,  0.074275482375003,  0.310783172496545 ]
    mass: 118.710000
    reduced_to: 1
  - symbol: Sn # 2
    coordinates: [  0.250000000000000,  0.074275482375003,  0.310783172496545 ]
    mass: 118.710000
    reduced_to: 1
  - symbol: Sn # 3
    coordinates: [  0.450000000000000,  0.074275482375003,  0.310783172496545 ]
    mass: 118.710000
    reduced_to: 1
  - symbol: Sn # 4
    coordinates: [  0.650000000000000,  0.074275482375003,  0.310783172496545 ]
    mass: 118.710000
    reduced_to: 1
  - symbol: Sn # 5
    coordinates: [  0.850000000000000,  0.074275482375003,  0.310783172496545 ]
    mass: 118.710000
    reduced_to: 1
  - symbol: Sn # 6
    coordinates: [  0.050000000000000,  0.274275482375003,  0.310783172496545 ]
    mass: 118.710000
    reduced_to: 1
  - symbol: Sn # 7
    coordinates: [  0.250000000000000,  0.274275482375003,  0.310783172496545 ]
    mass: 118.710000
    reduced_to: 1
  - symbol: Sn # 8
    coordinates: [  0.450000000000000,  0.274275482375003,  0.310783172496545 ]
    mass: 118.710000
    reduced_to: 1
  - symbol: Sn # 9
    coordinates: [  0.650000000000000,  0.274275482375003,  0.310783172496545 ]
    mass: 118.710000
    reduced_to: 1
  - symbol: Sn # 10
    coordinates: [  0.850000000000000,  0.274275482375003,  0.310783172496545 ]
    mass: 118.710000
    reduced_to: 1
  - symbol: Sn # 11
    coordinates: [  0.050000000000000,  0.474275482375003,  0.310783172496545 ]
    mass: 118.710000
    reduced_to: 1
  - symbol: Sn # 12
    coordinates: [  0.250000000000000,  0.474275482375003,  0.310783172496545 ]
    mass: 118.710000
    reduced_to: 1
  - symbol: Sn # 13
    coordinates: [  0.450000000000000,  0.474275482375003,  0.310783172496545 ]
    mass: 118.710000
    reduced_to: 1
  - symbol: Sn # 14
    coordinates: [  0.650000000000000,  0.474275482375003,  0.310783172496545 ]
    mass: 118.710000
    reduced_to: 1
  - symbol: Sn # 15
    coordinates: [  0.850000000000000,  0.474275482375003,  0.310783172496545 ]
    mass: 118.710000
    reduced_to: 1
  - symbol: Sn # 16
    coordinates: [  0.050000000000000,  0.674275482375003,  0.310783172496545 ]
    mass: 118.710000
    reduced_to: 1
  - symbol: Sn # 17
    coordinates: [  0.250000000000000,  0.674275482375003,  0.310783172496545 ]
    mass: 118.710000
    reduced_to: 1
  - symbol: Sn # 18
    coordinates: [  0.450000000000000,  0.674275482375003,  0.310783172496545 ]
    mass: 118.710000
    reduced_to: 1
  - symbol: Sn # 19
    coordinates: [  0.650000000000000,  0.674275482375003,  0.310783172496545 ]
    mass: 118.710000
    reduced_to: 1
  - symbol: Sn # 20
    coordinates: [  0.850000000000000,  0.674275482375003,  0.310783172496545 ]
    mass: 118.710000
    reduced_to: 1
  - symbol: Sn # 21
    coordinates: [  0.050000000000000,  0.874275482375003,  0.310783172496545 ]
    mass: 118.710000
    reduced_to: 1
  - symbol: Sn # 22
    coordinates: [  0.250000000000000,  0.874275482375003,  0.310783172496545 ]
    mass: 118.710000
    reduced_to: 1
  - symbol: Sn # 23
    coordinates: [  0.450000000000000,  0.874275482375003,  0.310783172496545 ]
    mass: 118.710000
    reduced_to: 1
  - symbol: Sn # 24
    coordinates: [  0.650000000000000,  0.874275482375003,  0.310783172496545 ]
    mass: 118.710000
    reduced_to: 1
  - symbol: Sn # 25
    coordinates: [  0.850000000000000,  0.874275482375003,  0.310783172496545 ]
    mass: 118.710000
    reduced_to: 1
  - symbol: Sn # 26
    coordinates: [  0.050000000000000,  0.074275482375003,  0.810783172496546 ]
    mass: 118.710000
    reduced_to: 1
  - symbol: Sn # 27
    coordinates: [  0.250000000000000,  0.074275482375003,  0.810783172496546 ]
    mass: 118.710000
    reduced_to: 1
  - symbol: Sn # 28
    coordinates: [  0.450000000000000,  0.074275482375003,  0.810783172496546 ]
    mass: 118.710000
    reduced_to: 1
  - symbol: Sn # 29
    coordinates: [  0.650000000000000,  0.074275482375003,  0.810783172496546 ]
    mass: 118.710000
    reduced_to: 1
  - symbol: Sn # 30
    coordinates: [  0.850000000000000,  0.074275482375003,  0.810783172496546 ]
    mass: 118.710000
    reduced_to: 1
  - symbol: Sn # 31
    coordinates: [  0.050000000000000,  0.274275482375003,  0.810783172496546 ]
    mass: 118.710000
    reduced_to: 1
  - symbol: Sn # 32
    coordinates: [  0.250000000000000,  0.274275482375003,  0.810783172496546 ]
    mass: 118.710000
    reduced_to: 1
  - symbol: Sn # 33
    coordinates: [  0.450000000000000,  0.274275482375003,  0.810783172496546 ]
    mass: 118.710000
    reduced_to: 1
  - symbol: Sn # 34
    coordinates: [  0.650000000000000,  0.274275482375003,  0.810783172496546 ]
    mass: 118.710000
    reduced_to: 1
  - symbol: Sn # 35
    coordinates: [  0.850000000000000,  0.274275482375003,  0.810783172496546 ]
    mass: 118.710000
    reduced_to: 1
  - symbol: Sn # 36
    coordinates: [  0.050000000000000,  0.474275482375003,  0.810783172496546 ]
    mass: 118.710000
    reduced_to: 1
  - symbol: Sn # 37
    coordinates: [  0.250000000000000,  0.474275482375003,  0.810783172496546 ]
    mass: 118.710000
    reduced_to: 1
  - symbol: Sn # 38
    coordinates: [  0.450000000000000,  0.474275482375003,  0.810783172496546 ]
    mass: 118.710000
    reduced_to: 1
  - symbol: Sn # 39
    coordinates: [  0.650000000000000,  0.474275482375003,  0.810783172496546 ]
    mass: 118.710000
    reduced_to: 1
  - symbol: Sn # 40
    coordinates: [  0.850000000000000,  0.474275482375003,  0.810783172496546 ]
    mass: 118.710000
    reduced_to: 1
  - symbol: Sn # 41
    coordinates: [  0.050000000000000,  0.674275482375003,  0.810783172496546 ]
    mass: 118.710000
    reduced_to: 1
  - symbol: Sn # 42
    coordinates: [  0.250000000000000,  0.674275482375003,  0.810783172496546 ]
    mass: 118.710000
    reduced_to: 1
  - symbol: Sn # 43
    coordinates: [  0.450000000000000,  0.674275482375003,  0.810783172496546 ]
    mass: 118.710000
    reduced_to: 1
  - symbol: Sn # 44
    coordinates: [  0.650000000000000,  0.674275482375003,  0.810783172496546 ]
    mass: 118.710000
    reduced_to: 1
  - symbol: Sn # 45
    coordinates: [  0.850000000000000,  0.674275482375003,  0.810783172496546 ]
    mass: 118.710000
    reduced_to: 1
  - symbol: Sn # 46
    coordinates: [  0.050000000000000,  0.874275482375003,  0.810783172496546 ]
    mass: 118.710000
    reduced_to: 1
  - symbol: Sn # 47
    coordinates: [  0.250000000000000,  0.874275482375003,  0.810783172496546 ]
    mass: 118.710000
    reduced_to: 1
  - symbol: Sn # 48
    coordinates: [  0.450000000000000,  0.874275482375003,  0.810783172496546 ]
    mass: 118.710000
    reduced_to: 1
  - symbol: Sn # 49
    coordinates: [  0.650000000000000,  0.874275482375003,  0.810783172496546 ]
    mass: 118.710000
    reduced_to: 1
  - symbol: Sn # 50
    coordinates: [  0.850000000000000,  0.874275482375003,  0.810783172496546 ]
    mass: 118.710000
    reduced_to: 1
  - symbol: Sn # 51
    coordinates: [  0.150000000000000,  0.125724517624997,  0.189216827503455 ]
    mass: 118.710000
    reduced_to: 51
  - symbol: Sn # 52
    coordinates: [  0.350000000000000,  0.125724517624997,  0.189216827503455 ]
    mass: 118.710000
    reduced_to: 51
  - symbol: Sn # 53
    coordinates: [  0.550000000000000,  0.125724517624997,  0.189216827503455 ]
    mass: 118.710000
    reduced_to: 51
  - symbol: Sn # 54
    coordinates: [  0.750000000000000,  0.125724517624997,  0.189216827503455 ]
    mass: 118.710000
    reduced_to: 51
  - symbol: Sn # 55
    coordinates: [  0.950000000000000,  0.125724517624997,  0.189216827503455 ]
    mass: 118.710000
    reduced_to: 51
  - symbol: Sn # 56
    coordinates: [  0.150000000000000,  0.325724517624997,  0.189216827503455 ]
    mass: 118.710000
    reduced_to: 51
  - symbol: Sn # 57
    coordinates: [  0.350000000000000,  0.325724517624997,  0.189216827503455 ]
    mass: 118.710000
    reduced_to: 51
  - symbol: Sn # 58
    coordinates: [  0.550000000000000,  0.325724517624997,  0.189216827503455 ]
    mass: 118.710000
    reduced_to: 51
  - symbol: Sn # 59
    coordinates: [  0.750000000000000,  0.325724517624997,  0.189216827503455 ]
    mass: 118.710000
    reduced_to: 51
  - symbol: Sn # 60
    coordinates: [  0.950000000000000,  0.325724517624997,  0.189216827503455 ]
    mass: 118.710000
    reduced_to: 51
  - symbol: Sn # 61
    coordinates: [  0.150000000000000,  0.525724517624997,  0.189216827503455 ]
    mass: 118.710000
    reduced_to: 51
  - symbol: Sn # 62
    coordinates: [  0.350000000000000,  0.525724517624997,  0.189216827503455 ]
    mass: 118.710000
    reduced_to: 51
  - symbol: Sn # 63
    coordinates: [  0.550000000000000,  0.525724517624997,  0.189216827503455 ]
    mass: 118.710000
    reduced_to: 51
  - symbol: Sn # 64
    coordinates: [  0.750000000000000,  0.525724517624997,  0.189216827503455 ]
    mass: 118.710000
    reduced_to: 51
  - symbol: Sn # 65
    coordinates: [  0.950000000000000,  0.525724517624997,  0.189216827503455 ]
    mass: 118.710000
    reduced_to: 51
  - symbol: Sn # 66
    coordinates: [  0.150000000000000,  0.725724517624997,  0.189216827503455 ]
    mass: 118.710000
    reduced_to: 51
  - symbol: Sn # 67
    coordinates: [  0.350000000000000,  0.725724517624997,  0.189216827503455 ]
    mass: 118.710000
    reduced_to: 51
  - symbol: Sn # 68
    coordinates: [  0.550000000000000,  0.725724517624997,  0.189216827503455 ]
    mass: 118.710000
    reduced_to: 51
  - symbol: Sn # 69
    coordinates: [  0.750000000000000,  0.725724517624997,  0.189216827503455 ]
    mass: 118.710000
    reduced_to: 51
  - symbol: Sn # 70
    coordinates: [  0.950000000000000,  0.725724517624997,  0.189216827503455 ]
    mass: 118.710000
    reduced_to: 51
  - symbol: Sn # 71
    coordinates: [  0.150000000000000,  0.925724517624997,  0.189216827503455 ]
    mass: 118.710000
    reduced_to: 51
  - symbol: Sn # 72
    coordinates: [  0.350000000000000,  0.925724517624997,  0.189216827503455 ]
    mass: 118.710000
    reduced_to: 51
  - symbol: Sn # 73
    coordinates: [  0.550000000000000,  0.925724517624997,  0.189216827503455 ]
    mass: 118.710000
    reduced_to: 51
  - symbol: Sn # 74
    coordinates: [  0.750000000000000,  0.925724517624997,  0.189216827503455 ]
    mass: 118.710000
    reduced_to: 51
  - symbol: Sn # 75
    coordinates: [  0.950000000000000,  0.925724517624997,  0.189216827503455 ]
    mass: 118.710000
    reduced_to: 51
  - symbol: Sn # 76
    coordinates: [  0.150000000000000,  0.125724517624997,  0.689216827503455 ]
    mass: 118.710000
    reduced_to: 51
  - symbol: Sn # 77
    coordinates: [  0.350000000000000,  0.125724517624997,  0.689216827503455 ]
    mass: 118.710000
    reduced_to: 51
  - symbol: Sn # 78
    coordinates: [  0.550000000000000,  0.125724517624997,  0.689216827503455 ]
    mass: 118.710000
    reduced_to: 51
  - symbol: Sn # 79
    coordinates: [  0.750000000000000,  0.125724517624997,  0.689216827503455 ]
    mass: 118.710000
    reduced_to: 51
  - symbol: Sn # 80
    coordinates: [  0.950000000000000,  0.125724517624997,  0.689216827503455 ]
    mass: 118.710000
    reduced_to: 51
  - symbol: Sn # 81
    coordinates: [  0.150000000000000,  0.325724517624997,  0.689216827503455 ]
    mass: 118.710000
    reduced_to: 51
  - symbol: Sn # 82
    coordinates: [  0.350000000000000,  0.325724517624997,  0.689216827503455 ]
    mass: 118.710000
    reduced_to: 51
  - symbol: Sn # 83
    coordinates: [  0.550000000000000,  0.325724517624997,  0.689216827503455 ]
    mass: 118.710000
    reduced_to: 51
  - symbol: Sn # 84
    coordinates: [  0.750000000000000,  0.325724517624997,  0.689216827503455 ]
    mass: 118.710000
    reduced_to: 51
  - symbol: Sn # 85
    coordinates: [  0.950000000000000,  0.325724517624997,  0.689216827503455 ]
    mass: 118.710000
    reduced_to: 51
  - symbol: Sn # 86
    coordinates: [  0.150000000000000,  0.525724517624997,  0.689216827503455 ]
    mass: 118.710000
    reduced_to: 51
  - symbol: Sn # 87
    coordinates: [  0.350000000000000,  0.525724517624997,  0.689216827503455 ]
    mass: 118.710000
    reduced_to: 51
  - symbol: Sn # 88
    coordinates: [  0.550000000000000,  0.525724517624997,  0.689216827503455 ]
    mass: 118.710000
    reduced_to: 51
  - symbol: Sn # 89
    coordinates: [  0.750000000000000,  0.525724517624997,  0.689216827503455 ]
    mass: 118.710000
    reduced_to: 51
  - symbol: Sn # 90
    coordinates: [  0.950000000000000,  0.525724517624997,  0.689216827503455 ]
    mass: 118.710000
    reduced_to: 51
  - symbol: Sn # 91
    coordinates: [  0.150000000000000,  0.725724517624997,  0.689216827503455 ]
    mass: 118.710000
    reduced_to: 51
  - symbol: Sn # 92
    coordinates: [  0.350000000000000,  0.725724517624997,  0.689216827503455 ]
    mass: 118.710000
    reduced_to: 51
  - symbol: Sn # 93
    coordinates: [  0.550000000000000,  0.725724517624997,  0.689216827503455 ]
    mass: 118.710000
    reduced_to: 51
  - symbol: Sn # 94
    coordinates: [  0.750000000000000,  0.725724517624997,  0.689216827503455 ]
    mass: 118.710000
    reduced_to: 51
  - symbol: Sn # 95
    coordinates: [  0.950000000000000,  0.725724517624997,  0.689216827503455 ]
    mass: 118.710000
    reduced_to: 51
  - symbol: Sn # 96
    coordinates: [  0.150000000000000,  0.925724517624997,  0.689216827503455 ]
    mass: 118.710000
    reduced_to: 51
  - symbol: Sn # 97
    coordinates: [  0.350000000000000,  0.925724517624997,  0.689216827503455 ]
    mass: 118.710000
    reduced_to: 51
  - symbol: Sn # 98
    coordinates: [  0.550000000000000,  0.925724517624997,  0.689216827503455 ]
    mass: 118.710000
    reduced_to: 51
  - symbol: Sn # 99
    coordinates: [  0.750000000000000,  0.925724517624997,  0.689216827503455 ]
    mass: 118.710000
    reduced_to: 51
  - symbol: Sn # 100
    coordinates: [  0.950000000000000,  0.925724517624997,  0.689216827503455 ]
    mass: 118.710000
    reduced_to: 51
  - symbol: Sn # 101
    coordinates: [  0.150000000000000,  0.174275482375003,  0.439216827503455 ]
    mass: 118.710000
    reduced_to: 101
  - symbol: Sn # 102
    coordinates: [  0.350000000000000,  0.174275482375003,  0.439216827503455 ]
    mass: 118.710000
    reduced_to: 101
  - symbol: Sn # 103
    coordinates: [  0.550000000000000,  0.174275482375003,  0.439216827503455 ]
    mass: 118.710000
    reduced_to: 101
  - symbol: Sn # 104
    coordinates: [  0.750000000000000,  0.174275482375003,  0.439216827503455 ]
    mass: 118.710000
    reduced_to: 101
  - symbol: Sn # 105
    coordinates: [  0.950000000000000,  0.174275482375003,  0.439216827503455 ]
    mass: 118.710000
    reduced_to: 101
  - symbol: Sn # 106
    coordinates: [  0.150000000000000,  0.374275482375003,  0.439216827503455 ]
    mass: 118.710000
    reduced_to: 101
  - symbol: Sn # 107
    coordinates: [  0.350000000000000,  0.374275482375003,  0.439216827503455 ]
    mass: 118.710000
    reduced_to: 101
  - symbol: Sn # 108
    coordinates: [  0.550000000000000,  0.374275482375003,  0.439216827503455 ]
    mass: 118.710000
    reduced_to: 101
  - symbol: Sn # 109
    coordinates: [  0.750000000000000,  0.374275482375003,  0.439216827503455 ]
    mass: 118.710000
    reduced_to: 101
  - symbol: Sn # 110
    coordinates: [  0.950000000000000,  0.374275482375003,  0.439216827503455 ]
    mass: 118.710000
    reduced_to: 101
  - symbol: Sn # 111
    coordinates: [  0.150000000000000,  0.574275482375003,  0.439216827503455 ]
    mass: 118.710000
    reduced_to: 101
  - symbol: Sn # 112
    coordinates: [  0.350000000000000,  0.574275482375003,  0.439216827503455 ]
    mass: 118.710000
    reduced_to: 101
  - symbol: Sn # 113
    coordinates: [  0.550000000000000,  0.574275482375003,  0.439216827503455 ]
    mass: 118.710000
    reduced_to: 101
  - symbol: Sn # 114
    coordinates: [  0.750000000000000,  0.574275482375003,  0.439216827503455 ]
    mass: 118.710000
    reduced_to: 101
  - symbol: Sn # 115
    coordinates: [  0.950000000000000,  0.574275482375003,  0.439216827503455 ]
    mass: 118.710000
    reduced_to: 101
  - symbol: Sn # 116
    coordinates: [  0.150000000000000,  0.774275482375003,  0.439216827503455 ]
    mass: 118.710000
    reduced_to: 101
  - symbol: Sn # 117
    coordinates: [  0.350000000000000,  0.774275482375003,  0.439216827503455 ]
    mass: 118.710000
    reduced_to: 101
  - symbol: Sn # 118
    coordinates: [  0.550000000000000,  0.774275482375003,  0.439216827503455 ]
    mass: 118.710000
    reduced_to: 101
  - symbol: Sn # 119
    coordinates: [  0.750000000000000,  0.774275482375003,  0.439216827503455 ]
    mass: 118.710000
    reduced_to: 101
  - symbol: Sn # 120
    coordinates: [  0.950000000000000,  0.774275482375003,  0.439216827503455 ]
    mass: 118.710000
    reduced_to: 101
  - symbol: Sn # 121
    coordinates: [  0.150000000000000,  0.974275482375003,  0.439216827503455 ]
    mass: 118.710000
    reduced_to: 101
  - symbol: Sn # 122
    coordinates: [  0.350000000000000,  0.974275482375003,  0.439216827503455 ]
    mass: 118.710000
    reduced_to: 101
  - symbol: Sn # 123
    coordinates: [  0.550000000000000,  0.974275482375003,  0.439216827503455 ]
    mass: 118.710000
    reduced_to: 101
  - symbol: Sn # 124
    coordinates: [  0.750000000000000,  0.974275482375003,  0.439216827503455 ]
    mass: 118.710000
    reduced_to: 101
  - symbol: Sn # 125
    coordinates: [  0.950000000000000,  0.974275482375003,  0.439216827503455 ]
    mass: 118.710000
    reduced_to: 101
  - symbol: Sn # 126
    coordinates: [  0.150000000000000,  0.174275482375003,  0.939216827503454 ]
    mass: 118.710000
    reduced_to: 101
  - symbol: Sn # 127
    coordinates: [  0.350000000000000,  0.174275482375003,  0.939216827503454 ]
    mass: 118.710000
    reduced_to: 101
  - symbol: Sn # 128
    coordinates: [  0.550000000000000,  0.174275482375003,  0.939216827503454 ]
    mass: 118.710000
    reduced_to: 101
  - symbol: Sn # 129
    coordinates: [  0.750000000000000,  0.174275482375003,  0.939216827503454 ]
    mass: 118.710000
    reduced_to: 101
  - symbol: Sn # 130
    coordinates: [  0.950000000000000,  0.174275482375003,  0.939216827503454 ]
    mass: 118.710000
    reduced_to: 101
  - symbol: Sn # 131
    coordinates: [  0.150000000000000,  0.374275482375003,  0.939216827503454 ]
    mass: 118.710000
    reduced_to: 101
  - symbol: Sn # 132
    coordinates: [  0.350000000000000,  0.374275482375003,  0.939216827503454 ]
    mass: 118.710000
    reduced_to: 101
  - symbol: Sn # 133
    coordinates: [  0.550000000000000,  0.374275482375003,  0.939216827503454 ]
    mass: 118.710000
    reduced_to: 101
  - symbol: Sn # 134
    coordinates: [  0.750000000000000,  0.374275482375003,  0.939216827503454 ]
    mass: 118.710000
    reduced_to: 101
  - symbol: Sn # 135
    coordinates: [  0.950000000000000,  0.374275482375003,  0.939216827503454 ]
    mass: 118.710000
    reduced_to: 101
  - symbol: Sn # 136
    coordinates: [  0.150000000000000,  0.574275482375003,  0.939216827503454 ]
    mass: 118.710000
    reduced_to: 101
  - symbol: Sn # 137
    coordinates: [  0.350000000000000,  0.574275482375003,  0.939216827503454 ]
    mass: 118.710000
    reduced_to: 101
  - symbol: Sn # 138
    coordinates: [  0.550000000000000,  0.574275482375003,  0.939216827503454 ]
    mass: 118.710000
    reduced_to: 101
  - symbol: Sn # 139
    coordinates: [  0.750000000000000,  0.574275482375003,  0.939216827503454 ]
    mass: 118.710000
    reduced_to: 101
  - symbol: Sn # 140
    coordinates: [  0.950000000000000,  0.574275482375003,  0.939216827503454 ]
    mass: 118.710000
    reduced_to: 101
  - symbol: Sn # 141
    coordinates: [  0.150000000000000,  0.774275482375003,  0.939216827503454 ]
    mass: 118.710000
    reduced_to: 101
  - symbol: Sn # 142
    coordinates: [  0.350000000000000,  0.774275482375003,  0.939216827503454 ]
    mass: 118.710000
    reduced_to: 101
  - symbol: Sn # 143
    coordinates: [  0.550000000000000,  0.774275482375003,  0.939216827503454 ]
    mass: 118.710000
    reduced_to: 101
  - symbol: Sn # 144
    coordinates: [  0.750000000000000,  0.774275482375003,  0.939216827503454 ]
    mass: 118.710000
    reduced_to: 101
  - symbol: Sn # 145
    coordinates: [  0.950000000000000,  0.774275482375003,  0.939216827503454 ]
    mass: 118.710000
    reduced_to: 101
  - symbol: Sn # 146
    coordinates: [  0.150000000000000,  0.974275482375003,  0.939216827503454 ]
    mass: 118.710000
    reduced_to: 101
  - symbol: Sn # 147
    coordinates: [  0.350000000000000,  0.974275482375003,  0.939216827503454 ]
    mass: 118.710000
    reduced_to: 101
  - symbol: Sn # 148
    coordinates: [  0.550000000000000,  0.974275482375003,  0.939216827503454 ]
    mass: 118.710000
    reduced_to: 101
  - symbol: Sn # 149
    coordinates: [  0.750000000000000,  0.974275482375003,  0.939216827503454 ]
    mass: 118.710000
    reduced_to: 101
  - symbol: Sn # 150
    coordinates: [  0.950000000000000,  0.974275482375003,  0.939216827503454 ]
    mass: 118.710000
    reduced_to: 101
  - symbol: Sn # 151
    coordinates: [  0.050000000000000,  0.025724517624997,  0.060783172496542 ]
    mass: 118.710000
    reduced_to: 151
  - symbol: Sn # 152
    coordinates: [  0.250000000000000,  0.025724517624997,  0.060783172496542 ]
    mass: 118.710000
    reduced_to: 151
  - symbol: Sn # 153
    coordinates: [  0.450000000000000,  0.025724517624997,  0.060783172496542 ]
    mass: 118.710000
    reduced_to: 151
  - symbol: Sn # 154
    coordinates: [  0.650000000000000,  0.025724517624997,  0.060783172496542 ]
    mass: 118.710000
    reduced_to: 151
  - symbol: Sn # 155
    coordinates: [  0.850000000000000,  0.025724517624997,  0.060783172496542 ]
    mass: 118.710000
    reduced_to: 151
  - symbol: Sn # 156
    coordinates: [  0.050000000000000,  0.225724517624997,  0.060783172496542 ]
    mass: 118.710000
    reduced_to: 151
  - symbol: Sn # 157
    coordinates: [  0.250000000000000,  0.225724517624997,  0.060783172496542 ]
    mass: 118.710000
    reduced_to: 151
  - symbol: Sn # 158
    coordinates: [  0.450000000000000,  0.225724517624997,  0.060783172496542 ]
    mass: 118.710000
    reduced_to: 151
  - symbol: Sn # 159
    coordinates: [  0.650000000000000,  0.225724517624997,  0.060783172496542 ]
    mass: 118.710000
    reduced_to: 151
  - symbol: Sn # 160
    coordinates: [  0.850000000000000,  0.225724517624997,  0.060783172496542 ]
    mass: 118.710000
    reduced_to: 151
  - symbol: Sn # 161
    coordinates: [  0.050000000000000,  0.425724517624997,  0.060783172496542 ]
    mass: 118.710000
    reduced_to: 151
  - symbol: Sn # 162
    coordinates: [  0.250000000000000,  0.425724517624997,  0.060783172496542 ]
    mass: 118.710000
    reduced_to: 151
  - symbol: Sn # 163
    coordinates: [  0.450000000000000,  0.425724517624997,  0.060783172496542 ]
    mass: 118.710000
    reduced_to: 151
  - symbol: Sn # 164
    coordinates: [  0.650000000000000,  0.425724517624997,  0.060783172496542 ]
    mass: 118.710000
    reduced_to: 151
  - symbol: Sn # 165
    coordinates: [  0.850000000000000,  0.425724517624997,  0.060783172496542 ]
    mass: 118.710000
    reduced_to: 151
  - symbol: Sn # 166
    coordinates: [  0.050000000000000,  0.625724517624997,  0.060783172496542 ]
    mass: 118.710000
    reduced_to: 151
  - symbol: Sn # 167
    coordinates: [  0.250000000000000,  0.625724517624997,  0.060783172496542 ]
    mass: 118.710000
    reduced_to: 151
  - symbol: Sn # 168
    coordinates: [  0.450000000000000,  0.625724517624997,  0.060783172496542 ]
    mass: 118.710000
    reduced_to: 151
  - symbol: Sn # 169
    coordinates: [  0.650000000000000,  0.625724517624997,  0.060783172496542 ]
    mass: 118.710000
    reduced_to: 151
  - symbol: Sn # 170
    coordinates: [  0.850000000000000,  0.625724517624997,  0.060783172496542 ]
    mass: 118.710000
    reduced_to: 151
  - symbol: Sn # 171
    coordinates: [  0.050000000000000,  0.825724517624997,  0.060783172496542 ]
    mass: 118.710000
    reduced_to: 151
  - symbol: Sn # 172
    coordinates: [  0.250000000000000,  0.825724517624997,  0.060783172496542 ]
    mass: 118.710000
    reduced_to: 151
  - symbol: Sn # 173
    coordinates: [  0.450000000000000,  0.825724517624997,  0.060783172496542 ]
    mass: 118.710000
    reduced_to: 151
  - symbol: Sn # 174
    coordinates: [  0.650000000000000,  0.825724517624997,  0.060783172496542 ]
    mass: 118.710000
    reduced_to: 151
  - symbol: Sn # 175
    coordinates: [  0.850000000000000,  0.825724517624997,  0.060783172496542 ]
    mass: 118.710000
    reduced_to: 151
  - symbol: Sn # 176
    coordinates: [  0.050000000000000,  0.025724517624997,  0.560783172496542 ]
    mass: 118.710000
    reduced_to: 151
  - symbol: Sn # 177
    coordinates: [  0.250000000000000,  0.025724517624997,  0.560783172496542 ]
    mass: 118.710000
    reduced_to: 151
  - symbol: Sn # 178
    coordinates: [  0.450000000000000,  0.025724517624997,  0.560783172496542 ]
    mass: 118.710000
    reduced_to: 151
  - symbol: Sn # 179
    coordinates: [  0.650000000000000,  0.025724517624997,  0.560783172496542 ]
    mass: 118.710000
    reduced_to: 151
  - symbol: Sn # 180
    coordinates: [  0.850000000000000,  0.025724517624997,  0.560783172496542 ]
    mass: 118.710000
    reduced_to: 151
  - symbol: Sn # 181
    coordinates: [  0.050000000000000,  0.225724517624997,  0.560783172496542 ]
    mass: 118.710000
    reduced_to: 151
  - symbol: Sn # 182
    coordinates: [  0.250000000000000,  0.225724517624997,  0.560783172496542 ]
    mass: 118.710000
    reduced_to: 151
  - symbol: Sn # 183
    coordinates: [  0.450000000000000,  0.225724517624997,  0.560783172496542 ]
    mass: 118.710000
    reduced_to: 151
  - symbol: Sn # 184
    coordinates: [  0.650000000000000,  0.225724517624997,  0.560783172496542 ]
    mass: 118.710000
    reduced_to: 151
  - symbol: Sn # 185
    coordinates: [  0.850000000000000,  0.225724517624997,  0.560783172496542 ]
    mass: 118.710000
    reduced_to: 151
  - symbol: Sn # 186
    coordinates: [  0.050000000000000,  0.425724517624997,  0.560783172496542 ]
    mass: 118.710000
    reduced_to: 151
  - symbol: Sn # 187
    coordinates: [  0.250000000000000,  0.425724517624997,  0.560783172496542 ]
    mass: 118.710000
    reduced_to: 151
  - symbol: Sn # 188