phonopy:
  version: "2.27.0"
  frequency_unit_conversion_factor: 15.633302
  symmetry_tolerance: 1.00000e-04

space_group:
  type: "F-43m"
  number: 216
  Hall_symbol: "F -4 2 3"

primitive_matrix:
- [ -0.000000000000000,  0.500000000000000,  0.500000000000000 ]
- [  0.500000000000000, -0.000000000000000,  0.500000000000000 ]
- [  0.500000000000000,  0.500000000000000, -0.000000000000000 ]

supercell_matrix:
- [   4,   0,   0 ]
- [   0,   4,   0 ]
- [   0,   0,   4 ]

primitive_cell:
  lattice:
  - [     0.000000000000000,     2.871807745367317,     2.871807745367344 ] # a
  - [     2.871807745367335,    -0.000000000000000,     2.871807745367343 ] # b
  - [     2.871807745367335,     2.871807745367318,     0.000000000000001 ] # c
  points:
  - symbol: Ga # 1
    coordinates: [  0.000000000000001,  0.000000000000000,  0.999999999999998 ]
    mass: 69.723000
  - symbol: As # 2
    coordinates: [  0.250000000000000,  0.249999999999999,  0.249999999999999 ]
    mass: 74.921600
  reciprocal_lattice: # without 2pi
  - [    -0.174106362379785,     0.174106362379786,     0.174106362379785 ] # a*
  - [     0.174106362379785,    -0.174106362379787,     0.174106362379785 ] # b*
  - [     0.174106362379786,     0.174106362379787,    -0.174106362379785 ] # c*

unit_cell:
  lattice:
  - [     5.743615490734670,     0.000000000000000,     0.000000000000000 ] # a
  - [     0.000000000000000,     5.743615490734635,     0.000000000000002 ] # b
  - [    -0.000000000000000,    -0.000000000000001,     5.743615490734688 ] # c
  points:
  - symbol: Ga # 1
    coordinates: [ -0.000000000000001, -0.000000000000001, -0.000000000000001 ]
    mass: 69.723000
    reduced_to: 1
  - symbol: Ga # 2
    coordinates: [ -0.000000000000001,  0.499999999999999,  0.499999999999999 ]
    mass: 69.723000
    reduced_to: 1
  - symbol: Ga # 3
    coordinates: [  0.499999999999999, -0.000000000000001,  0.499999999999999 ]
    mass: 69.723000
    reduced_to: 1
  - symbol: Ga # 4
    coordinates: [  0.499999999999999,  0.499999999999999, -0.000000000000001 ]
    mass: 69.723000
    reduced_to: 1
  - symbol: As # 5
    coordinates: [  0.249999999999999,  0.749999999999999,  0.749999999999999 ]
    mass: 74.921600
    reduced_to: 5
  - symbol: As # 6
    coordinates: [  0.249999999999999,  0.249999999999999,  0.249999999999999 ]
    mass: 74.921600
    reduced_to: 5
  - symbol: As # 7
    coordinates: [  0.749999999999999,  0.749999999999999,  0.249999999999999 ]
    mass: 74.921600
    reduced_to: 5
  - symbol: As # 8
    coordinates: [  0.749999999999999,  0.249999999999999,  0.749999999999999 ]
    mass: 74.921600
    reduced_to: 5

supercell:
  lattice:
  - [    22.974461962938680,     0.000000000000000,     0.000000000000001 ] # a
  - [     0.000000000000001,    22.974461962938541,     0.000000000000008 ] # b
  - [    -0.000000000000000,    -0.000000000000004,    22.974461962938751 ] # c
  points:
  - symbol: Ga # 1
    coordinates: [  1.000000000000000,  1.000000000000000,  1.000000000000000 ]
    mass: 69.723000
    reduced_to: 1
  - symbol: Ga # 2
    coordinates: [  0.250000000000000,  1.000000000000000,  1.000000000000000 ]
    mass: 69.723000
    reduced_to: 1
  - symbol: Ga # 3
    coordinates: [  0.500000000000000,  1.000000000000000,  1.000000000000000 ]
    mass: 69.723000
    reduced_to: 1
  - symbol: Ga # 4
    coordinates: [  0.750000000000000,  1.000000000000000,  1.000000000000000 ]
    mass: 69.723000
    reduced_to: 1
  - symbol: Ga # 5
    coordinates: [  1.000000000000000,  0.250000000000000,  1.000000000000000 ]
    mass: 69.723000
    reduced_to: 1
  - symbol: Ga # 6
    coordinates: [  0.250000000000000,  0.250000000000000,  1.000000000000000 ]
    mass: 69.723000
    reduced_to: 1
  - symbol: Ga # 7
    coordinates: [  0.500000000000000,  0.250000000000000,  1.000000000000000 ]
    mass: 69.723000
    reduced_to: 1
  - symbol: Ga # 8
    coordinates: [  0.750000000000000,  0.250000000000000,  1.000000000000000 ]
    mass: 69.723000
    reduced_to: 1
  - symbol: Ga # 9
    coordinates: [  1.000000000000000,  0.500000000000000,  1.000000000000000 ]
    mass: 69.723000
    reduced_to: 1
  - symbol: Ga # 10
    coordinates: [  0.250000000000000,  0.500000000000000,  1.000000000000000 ]
    mass: 69.723000
    reduced_to: 1
  - symbol: Ga # 11
    coordinates: [  0.500000000000000,  0.500000000000000,  1.000000000000000 ]
    mass: 69.723000
    reduced_to: 1
  - symbol: Ga # 12
    coordinates: [  0.750000000000000,  0.500000000000000,  1.000000000000000 ]
    mass: 69.723000
    reduced_to: 1
  - symbol: Ga # 13
    coordinates: [  1.000000000000000,  0.750000000000000,  1.000000000000000 ]
    mass: 69.723000
    reduced_to: 1
  - symbol: Ga # 14
    coordinates: [  0.250000000000000,  0.750000000000000,  1.000000000000000 ]
    mass: 69.723000
    reduced_to: 1
  - symbol: Ga # 15
    coordinates: [  0.500000000000000,  0.750000000000000,  1.000000000000000 ]
    mass: 69.723000
    reduced_to: 1
  - symbol: Ga # 16
    coordinates: [  0.750000000000000,  0.750000000000000,  1.000000000000000 ]
    mass: 69.723000
    reduced_to: 1
  - symbol: Ga # 17
    coordinates: [  1.000000000000000,  1.000000000000000,  0.250000000000000 ]
    mass: 69.723000
    reduced_to: 1
  - symbol: Ga # 18
    coordinates: [  0.250000000000000,  1.000000000000000,  0.250000000000000 ]
    mass: 69.723000
    reduced_to: 1
  - symbol: Ga # 19
    coordinates: [  0.500000000000000,  1.000000000000000,  0.250000000000000 ]
    mass: 69.723000
    reduced_to: 1
  - symbol: Ga # 20
    coordinates: [  0.750000000000000,  1.000000000000000,  0.250000000000000 ]
    mass: 69.723000
    reduced_to: 1
  - symbol: Ga # 21
    coordinates: [  1.000000000000000,  0.250000000000000,  0.250000000000000 ]
    mass: 69.723000
    reduced_to: 1
  - symbol: Ga # 22
    coordinates: [  0.250000000000000,  0.250000000000000,  0.250000000000000 ]
    mass: 69.723000
    reduced_to: 1
  - symbol: Ga # 23
    coordinates: [  0.500000000000000,  0.250000000000000,  0.250000000000000 ]
    mass: 69.723000
    reduced_to: 1
  - symbol: Ga # 24
    coordinates: [  0.750000000000000,  0.250000000000000,  0.250000000000000 ]
    mass: 69.723000
    reduced_to: 1
  - symbol: Ga # 25
    coordinates: [  1.000000000000000,  0.500000000000000,  0.250000000000000 ]
    mass: 69.723000
    reduced_to: 1
  - symbol: Ga # 26
    coordinates: [  0.250000000000000,  0.500000000000000,  0.250000000000000 ]
    mass: 69.723000
    reduced_to: 1
  - symbol: Ga # 27
    coordinates: [  0.500000000000000,  0.500000000000000,  0.250000000000000 ]
    mass: 69.723000
    reduced_to: 1
  - symbol: Ga # 28
    coordinates: [  0.750000000000000,  0.500000000000000,  0.250000000000000 ]
    mass: 69.723000
    reduced_to: 1
  - symbol: Ga # 29
    coordinates: [  1.000000000000000,  0.750000000000000,  0.250000000000000 ]
    mass: 69.723000
    reduced_to: 1
  - symbol: Ga # 30
    coordinates: [  0.250000000000000,  0.750000000000000,  0.250000000000000 ]
    mass: 69.723000
    reduced_to: 1
  - symbol: Ga # 31
    coordinates: [  0.500000000000000,  0.750000000000000,  0.250000000000000 ]
    mass: 69.723000
    reduced_to: 1
  - symbol: Ga # 32
    coordinates: [  0.750000000000000,  0.750000000000000,  0.250000000000000 ]
    mass: 69.723000
    reduced_to: 1
  - symbol: Ga # 33
    coordinates: [  1.000000000000000,  1.000000000000000,  0.500000000000000 ]
    mass: 69.723000
    reduced_to: 1
  - symbol: Ga # 34
    coordinates: [  0.250000000000000,  1.000000000000000,  0.500000000000000 ]
    mass: 69.723000
    reduced_to: 1
  - symbol: Ga # 35
    coordinates: [  0.500000000000000,  1.000000000000000,  0.500000000000000 ]
    mass: 69.723000
    reduced_to: 1
  - symbol: Ga # 36
    coordinates: [  0.750000000000000,  1.000000000000000,  0.500000000000000 ]
    mass: 69.723000
    reduced_to: 1
  - symbol: Ga # 37
    coordinates: [  1.000000000000000,  0.250000000000000,  0.500000000000000 ]
    mass: 69.723000
    reduced_to: 1
  - symbol: Ga # 38
    coordinates: [  0.250000000000000,  0.250000000000000,  0.500000000000000 ]
    mass: 69.723000
    reduced_to: 1
  - symbol: Ga # 39
    coordinates: [  0.500000000000000,  0.250000000000000,  0.500000000000000 ]
    mass: 69.723000
    reduced_to: 1
  - symbol: Ga # 40
    coordinates: [  0.750000000000000,  0.250000000000000,  0.500000000000000 ]
    mass: 69.723000
    reduced_to: 1
  - symbol: Ga # 41
    coordinates: [  1.000000000000000,  0.500000000000000,  0.500000000000000 ]
    mass: 69.723000
    reduced_to: 1
  - symbol: Ga # 42
    coordinates: [  0.250000000000000,  0.500000000000000,  0.500000000000000 ]
    mass: 69.723000
    reduced_to: 1
  - symbol: Ga # 43
    coordinates: [  0.500000000000000,  0.500000000000000,  0.500000000000000 ]
    mass: 69.723000
    reduced_to: 1
  - symbol: Ga # 44
    coordinates: [  0.750000000000000,  0.500000000000000,  0.500000000000000 ]
    mass: 69.723000
    reduced_to: 1
  - symbol: Ga # 45
    coordinates: [  1.000000000000000,  0.750000000000000,  0.500000000000000 ]
    mass: 69.723000
    reduced_to: 1
  - symbol: Ga # 46
    coordinates: [  0.250000000000000,  0.750000000000000,  0.500000000000000 ]
    mass: 69.723000
    reduced_to: 1
  - symbol: Ga # 47
    coordinates: [  0.500000000000000,  0.750000000000000,  0.500000000000000 ]
    mass: 69.723000
    reduced_to: 1
  - symbol: Ga # 48
    coordinates: [  0.750000000000000,  0.750000000000000,  0.500000000000000 ]
    mass: 69.723000
    reduced_to: 1
  - symbol: Ga # 49
    coordinates: [  1.000000000000000,  1.000000000000000,  0.750000000000000 ]
    mass: 69.723000
    reduced_to: 1
  - symbol: Ga # 50
    coordinates: [  0.250000000000000,  1.000000000000000,  0.750000000000000 ]
    mass: 69.723000
    reduced_to: 1
  - symbol: Ga # 51
    coordinates: [  0.500000000000000,  1.000000000000000,  0.750000000000000 ]
    mass: 69.723000
    reduced_to: 1
  - symbol: Ga # 52
    coordinates: [  0.750000000000000,  1.000000000000000,  0.750000000000000 ]
    mass: 69.723000
    reduced_to: 1
  - symbol: Ga # 53
    coordinates: [  1.000000000000000,  0.250000000000000,  0.750000000000000 ]
    mass: 69.723000
    reduced_to: 1
  - symbol: Ga # 54
    coordinates: [  0.250000000000000,  0.250000000000000,  0.750000000000000 ]
    mass: 69.723000
    reduced_to: 1
  - symbol: Ga # 55
    coordinates: [  0.500000000000000,  0.250000000000000,  0.750000000000000 ]
    mass: 69.723000
    reduced_to: 1
  - symbol: Ga # 56
    coordinates: [  0.750000000000000,  0.250000000000000,  0.750000000000000 ]
    mass: 69.723000
    reduced_to: 1
  - symbol: Ga # 57
    coordinates: [  1.000000000000000,  0.500000000000000,  0.750000000000000 ]
    mass: 69.723000
    reduced_to: 1
  - symbol: Ga # 58
    coordinates: [  0.250000000000000,  0.500000000000000,  0.750000000000000 ]
    mass: 69.723000
    reduced_to: 1
  - symbol: Ga # 59
    coordinates: [  0.500000000000000,  0.500000000000000,  0.750000000000000 ]
    mass: 69.723000
    reduced_to: 1
  - symbol: Ga # 60
    coordinates: [  0.750000000000000,  0.500000000000000,  0.750000000000000 ]
    mass: 69.723000
    reduced_to: 1
  - symbol: Ga # 61
    coordinates: [  1.000000000000000,  0.750000000000000,  0.750000000000000 ]
    mass: 69.723000
    reduced_to: 1
  - symbol: Ga # 62
    coordinates: [  0.250000000000000,  0.750000000000000,  0.750000000000000 ]
    mass: 69.723000
    reduced_to: 1
  - symbol: Ga # 63
    coordinates: [  0.500000000000000,  0.750000000000000,  0.750000000000000 ]
    mass: 69.723000
    reduced_to: 1
  - symbol: Ga # 64
    coordinates: [  0.750000000000000,  0.750000000000000,  0.750000000000000 ]
    mass: 69.723000
    reduced_to: 1
  - symbol: Ga # 65
    coordinates: [  1.000000000000000,  0.125000000000000,  0.125000000000000 ]
    mass: 69.723000
    reduced_to: 1
  - symbol: Ga # 66
    coordinates: [  0.250000000000000,  0.125000000000000,  0.125000000000000 ]
    mass: 69.723000
    reduced_to: 1
  - symbol: Ga # 67
    coordinates: [  0.500000000000000,  0.125000000000000,  0.125000000000000 ]
    mass: 69.723000
    reduced_to: 1
  - symbol: Ga # 68
    coordinates: [  0.750000000000000,  0.125000000000000,  0.125000000000000 ]
    mass: 69.723000
    reduced_to: 1
  - symbol: Ga # 69
    coordinates: [  1.000000000000000,  0.375000000000000,  0.125000000000000 ]
    mass: 69.723000
    reduced_to: 1
  - symbol: Ga # 70
    coordinates: [  0.250000000000000,  0.375000000000000,  0.125000000000000 ]
    mass: 69.723000
    reduced_to: 1
  - symbol: Ga # 71
    coordinates: [  0.500000000000000,  0.375000000000000,  0.125000000000000 ]
    mass: 69.723000
    reduced_to: 1
  - symbol: Ga # 72
    coordinates: [  0.750000000000000,  0.375000000000000,  0.125000000000000 ]
    mass: 69.723000
    reduced_to: 1
  - symbol: Ga # 73
    coordinates: [  1.000000000000000,  0.625000000000000,  0.125000000000000 ]
    mass: 69.723000
    reduced_to: 1
  - symbol: Ga # 74
    coordinates: [  0.250000000000000,  0.625000000000000,  0.125000000000000 ]
    mass: 69.723000
    reduced_to: 1
  - symbol: Ga # 75
    coordinates: [  0.500000000000000,  0.625000000000000,  0.125000000000000 ]
    mass: 69.723000
    reduced_to: 1
  - symbol: Ga # 76
    coordinates: [  0.750000000000000,  0.625000000000000,  0.125000000000000 ]
    mass: 69.723000
    reduced_to: 1
  - symbol: Ga # 77
    coordinates: [  1.000000000000000,  0.875000000000000,  0.125000000000000 ]
    mass: 69.723000
    reduced_to: 1
  - symbol: Ga # 78
    coordinates: [  0.250000000000000,  0.875000000000000,  0.125000000000000 ]
    mass: 69.723000
    reduced_to: 1
  - symbol: Ga # 79
    coordinates: [  0.500000000000000,  0.875000000000000,  0.125000000000000 ]
    mass: 69.723000
    reduced_to: 1
  - symbol: Ga # 80
    coordinates: [  0.750000000000000,  0.875000000000000,  0.125000000000000 ]
    mass: 69.723000
    reduced_to: 1
  - symbol: Ga # 81
    coordinates: [  1.000000000000000,  0.125000000000000,  0.375000000000000 ]
    mass: 69.723000
    reduced_to: 1
  - symbol: Ga # 82
    coordinates: [  0.250000000000000,  0.125000000000000,  0.375000000000000 ]
    mass: 69.723000
    reduced_to: 1
  - symbol: Ga # 83
    coordinates: [  0.500000000000000,  0.125000000000000,  0.375000000000000 ]
    mass: 69.723000
    reduced_to: 1
  - symbol: Ga # 84
    coordinates: [  0.750000000000000,  0.125000000000000,  0.375000000000000 ]
    mass: 69.723000
    reduced_to: 1
  - symbol: Ga # 85
    coordinates: [  1.000000000000000,  0.375000000000000,  0.375000000000000 ]
    mass: 69.723000
    reduced_to: 1
  - symbol: Ga # 86
    coordinates: [  0.250000000000000,  0.375000000000000,  0.375000000000000 ]
    mass: 69.723000
    reduced_to: 1
  - symbol: Ga # 87
    coordinates: [  0.500000000000000,  0.375000000000000,  0.375000000000000 ]
    mass: 69.723000
    reduced_to: 1
  - symbol: Ga # 88
    coordinates: [  0.750000000000000,  0.375000000000000,  0.375000000000000 ]
    mass: 69.723000
    reduced_to: 1
  - symbol: Ga # 89
    coordinates: [  1.000000000000000,  0.625000000000000,  0.375000000000000 ]
    mass: 69.723000
    reduced_to: 1
  - symbol: Ga # 90
    coordinates: [  0.250000000000000,  0.625000000000000,  0.375000000000000 ]
    mass: 69.723000
    reduced_to: 1
  - symbol: Ga # 91
    coordinates: [  0.500000000000000,  0.625000000000000,  0.375000000000000 ]
    mass: 69.723000
    reduced_to: 1
  - symbol: Ga # 92
    coordinates: [  0.750000000000000,  0.625000000000000,  0.375000000000000 ]
    mass: 69.723000
    reduced_to: 1
  - symbol: Ga # 93
    coordinates: [  1.000000000000000,  0.875000000000000,  0.375000000000000 ]
    mass: 69.723000
    reduced_to: 1
  - symbol: Ga # 94
    coordinates: [  0.250000000000000,  0.875000000000000,  0.375000000000000 ]
    mass: 69.723000
    reduced_to: 1
  - symbol: Ga # 95
    coordinates: [  0.500000000000000,  0.875000000000000,  0.375000000000000 ]
    mass: 69.723000
    reduced_to: 1
  - symbol: Ga # 96
    coordinates: [  0.750000000000000,  0.875000000000000,  0.375000000000000 ]
    mass: 69.723000
    reduced_to: 1
  - symbol: Ga # 97
    coordinates: [  1.000000000000000,  0.125000000000000,  0.625000000000000 ]
    mass: 69.723000
    reduced_to: 1
  - symbol: Ga # 98
    coordinates: [  0.250000000000000,  0.125000000000000,  0.625000000000000 ]
    mass: 69.723000
    reduced_to: 1
  - symbol: Ga # 99
    coordinates: [  0.500000000000000,  0.125000000000000,  0.625000000000000 ]
    mass: 69.723000
    reduced_to: 1
  - symbol: Ga # 100
    coordinates: [  0.750000000000000,  0.125000000000000,  0.625000000000000 ]
    mass: 69.723000
    reduced_to: 1
  - symbol: Ga # 101
    coordinates: [  1.000000000000000,  0.375000000000000,  0.625000000000000 ]
    mass: 69.723000
    reduced_to: 1
  - symbol: Ga # 102
    coordinates: [  0.250000000000000,  0.375000000000000,  0.625000000000000 ]
    mass: 69.723000
    reduced_to: 1
  - symbol: Ga # 103
    coordinates: [  0.500000000000000,  0.375000000000000,  0.625000000000000 ]
    mass: 69.723000
    reduced_to: 1
  - symbol: Ga # 104
    coordinates: [  0.750000000000000,  0.375000000000000,  0.625000000000000 ]
    mass: 69.723000
    reduced_to: 1
  - symbol: Ga # 105
    coordinates: [  1.000000000000000,  0.625000000000000,  0.625000000000000 ]
    mass: 69.723000
    reduced_to: 1
  - symbol: Ga # 106
    coordinates: [  0.250000000000000,  0.625000000000000,  0.625000000000000 ]
    mass: 69.723000
    reduced_to: 1
  - symbol: Ga # 107
    coordinates: [  0.500000000000000,  0.625000000000000,  0.625000000000000 ]
    mass: 69.723000
    reduced_to: 1
  - symbol: Ga # 108
    coordinates: [  0.750000000000000,  0.625000000000000,  0.625000000000000 ]
    mass: 69.723000
    reduced_to: 1
  - symbol: Ga # 109
    coordinates: [  1.000000000000000,  0.875000000000000,  0.625000000000000 ]
    mass: 69.723000
    reduced_to: 1
  - symbol: Ga # 110
    coordinates: [  0.250000000000000,  0.875000000000000,  0.625000000000000 ]
    mass: 69.723000
    reduced_to: 1
  - symbol: Ga # 111
    coordinates: [  0.500000000000000,  0.875000000000000,  0.625000000000000 ]
    mass: 69.723000
    reduced_to: 1
  - symbol: Ga # 112
    coordinates: [  0.750000000000000,  0.875000000000000,  0.625000000000000 ]
    mass: 69.723000
    reduced_to: 1
  - symbol: Ga # 113
    coordinates: [  1.000000000000000,  0.125000000000000,  0.875000000000000 ]
    mass: 69.723000
    reduced_to: 1
  - symbol: Ga # 114
    coordinates: [  0.250000000000000,  0.125000000000000,  0.875000000000000 ]
    mass: 69.723000
    reduced_to: 1
  - symbol: Ga # 115
    coordinates: [  0.500000000000000,  0.125000000000000,  0.875000000000000 ]
    mass: 69.723000
    reduced_to: 1
  - symbol: Ga # 116
    coordinates: [  0.750000000000000,  0.125000000000000,  0.875000000000000 ]
    mass: 69.723000
    reduced_to: 1
  - symbol: Ga # 117
    coordinates: [  1.000000000000000,  0.375000000000000,  0.875000000000000 ]
    mass: 69.723000
    reduced_to: 1
  - symbol: Ga # 118
    coordinates: [  0.250000000000000,  0.375000000000000,  0.875000000000000 ]
    mass: 69.723000
    reduced_to: 1
  - symbol: Ga # 119
    coordinates: [  0.500000000000000,  0.375000000000000,  0.875000000000000 ]
    mass: 69.723000
    reduced_to: 1
  - symbol: Ga # 120
    coordinates: [  0.750000000000000,  0.375000000000000,  0.875000000000000 ]
    mass: 69.723000
    reduced_to: 1
  - symbol: Ga # 121
    coordinates: [  1.000000000000000,  0.625000000000000,  0.875000000000000 ]
    mass: 69.723000
    reduced_to: 1
  - symbol: Ga # 122
    coordinates: [  0.250000000000000,  0.625000000000000,  0.875000000000000 ]
    mass: 69.723000
    reduced_to: 1
  - symbol: Ga # 123
    coordinates: [  0.500000000000000,  0.625000000000000,  0.875000000000000 ]
    mass: 69.723000
    reduced_to: 1
  - symbol: Ga # 124
    coordinates: [  0.750000000000000,  0.625000000000000,  0.875000000000000 ]
    mass: 69.723000
    reduced_to: 1
  - symbol: Ga # 125
    coordinates: [  1.000000000000000,  0.875000000000000,  0.875000000000000 ]
    mass: 69.723000
    reduced_to: 1
  - symbol: Ga # 126
    coordinates: [  0.250000000000000,  0.875000000000000,  0.875000000000000 ]
    mass: 69.723000
    reduced_to: 1
  - symbol: Ga # 127
    coordinates: [  0.500000000000000,  0.875000000000000,  0.875000000000000 ]
    mass: 69.723000
    reduced_to: 1
  - symbol: Ga # 128
    coordinates: [  0.750000000000000,  0.875000000000000,  0.875000000000000 ]
    mass: 69.723000
    reduced_to: 1
  - symbol: Ga # 129
    coordinates: [  0.125000000000000,  1.000000000000000,  0.125000000000000 ]
    mass: 69.723000
    reduced_to: 1
  - symbol: Ga # 130
    coordinates: [  0.375000000000000,  1.000000000000000,  0.125000000000000 ]
    mass: 69.723000
    reduced_to: 1
  - symbol: Ga # 131
    coordinates: [  0.625000000000000,  1.000000000000000,  0.125000000000000 ]
    mass: 69.723000
    reduced_to: 1
  - symbol: Ga # 132
    coordinates: [  0.875000000000000,  1.000000000000000,  0.125000000000000 ]
    mass: 69.723000
    reduced_to: 1
  - symbol: Ga # 133
    coordinates: [  0.125000000000000,  0.250000000000000,  0.125000000000000 ]
    mass: 69.723000
    reduced_to: 1
  - symbol: Ga # 134
    coordinates: [  0.375000000000000,  0.250000000000000,  0.125000000000000 ]
    mass: 69.723000
    reduced_to: 1
  - symbol: Ga # 135
    coordinates: [  0.625000000000000,  0.250000000000000,  0.125000000000000 ]
    mass: 69.723000
    reduced_to: 1
  - symbol: Ga # 136
    coordinates: [  0.875000000000000,  0.250000000000000,  0.125000000000000 ]
    mass: 69.723000
    reduced_to: 1
  - symbol: Ga # 137
    coordinates: [  0.125000000000000,  0.500000000000000,  0.125000000000000 ]
    mass: 69.723000
    reduced_to: 1
  - symbol: Ga # 138
    coordinates: [  0.375000000000000,  0.500000000000000,  0.125000000000000 ]
    mass: 69.723000
    reduced_to: 1
  - symbol: Ga # 139
    coordinates: [  0.625000000000000,  0.500000000000000,  0.125000000000000 ]
    mass: 69.723000
    reduced_to: 1
  - symbol: Ga # 140
    coordinates: [  0.875000000000000,  0.500000000000000,  0.125000000000000 ]
    mass: 69.723000
    reduced_to: 1
  - symbol: Ga # 141
    coordinates: [  0.125000000000000,  0.750000000000000,  0.125000000000000 ]
    mass: 69.723000
    reduced_to: 1
  - symbol: Ga # 142
    coordinates: [  0.375000000000000,  0.750000000000000,  0.125000000000000 ]
    mass: 69.723000
    reduced_to: 1
  - symbol: Ga # 143
    coordinates: [  0.625000000000000,  0.750000000000000,  0.125000000000000 ]
    mass: 69.723000
    reduced_to: 1
  - symbol: Ga # 144
    coordinates: [  0.875000000000000,  0.750000000000000,  0.125000000000000 ]
    mass: 69.723000
    reduced_to: 1
  - symbol: Ga # 145
    coordinates: [  0.125000000000000,  1.000000000000000,  0.375000000000000 ]
    mass: 69.723000
    reduced_to: 1
  - symbol: Ga # 146
    coordinates: [  0.375000000000000,  1.000000000000000,  0.375000000000000 ]
    mass: 69.723000
    reduced_to: 1
  - symbol: Ga # 147
    coordinates: [  0.625000000000000,  1.000000000000000,  0.375000000000000 ]
    mass: 69.723000
    reduced_to: 1
  - symbol: Ga # 148
    coordinates: [  0.875000000000000,  1.000000000000000,  0.375000000000000 ]
    mass: 69.723000
    reduced_to: 1
  - symbol: Ga # 149
    coordinates: [  0.125000000000000,  0.250000000000000,  0.375000000000000 ]
    mass: 69.723000
    reduced_to: 1
  - symbol: Ga # 150
    coordinates: [  0.375000000000000,  0.250000000000000,  0.375000000000000 ]
    mass: 69.723000
    reduced_to: 1
  - symbol: Ga # 151
    coordinates: [  0.625000000000000,  0.250000000000000,  0.375000000000000 ]
    mass: 69.723000
    reduced_to: 1
  - symbol: Ga # 152
    coordinates: [  0.875000000000000,  0.250000000000000,  0.375000000000000 ]
    mass: 69.723000
    reduced_to: 1
  - symbol: Ga # 153
    coordinates: [  0.125000000000000,  0.500000000000000,  0.375000000000000 ]
    mass: 69.723000
    reduced_to: 1
  - symbol: Ga # 154
    coordinates: [  0.375000000000000,  0.500000000000000,  0.375000000000000 ]
    mass: 69.723000
    reduced_to: 1
  - symbol: Ga # 155
    coordinates: [  0.625000000000000,  0.500000000000000,  0.375000000000000 ]
    mass: 69.723000
    reduced_to: 1
  - symbol: Ga # 156
    coordinates: [  0.875000000000000,  0.500000000000000,  0.375000000000000 ]
    mass: 69.723000
    reduced_to: 1
  - symbol: Ga # 157
    coordinates: [  0.125000000000000,  0.750000000000000,  0.375000000000000 ]
    mass: 69.723000
    reduced_to: 1
  - symbol: Ga # 158
    coordinates: [  0.375000000000000,  0.750000000000000,  0.375000000000000 ]
    mass: 69.723000
    reduced_to: 1
  - symbol: Ga # 159
    coordinates: [  0.625000000000000,  0.750000000000000,  0.375000000000000 ]
    mass: 69.723000
    reduced_to: 1
  - symbol: Ga # 160
    coordinates: [  0.875000000000000,  0.750000000000000,  0.375000000000000 ]
    mass: 69.723000
    reduced_to: 1
  - symbol: Ga # 161
    coordinates: [  0.125000000000000,  1.000000000000000,  0.625000000000000 ]
    mass: 69.723000
    reduced_to: 1
  - symbol: Ga # 162
    coordinates: [  0.375000000000000,  1.000000000000000,  0.625000000000000 ]
    mass: 69.723000
    reduced_to: 1
  - symbol: Ga # 163
    coordinates: [  0.625000000000000,  1.000000000000000,  0.625000000000000 ]
    mass: 69.723000
    reduced_to: 1
  - symbol: Ga # 164
    coordinates: [  0.875000000000000,  1.000000000000000,  0.625000000000000 ]
    mass: 69.723000
    reduced_to: 1
  - symbol: Ga # 165
    coordinates: [  0.125000000000000,  0.250000000000000,  0.625000000000000 ]
    mass: 69.723000
    reduced_to: 1
  - symbol: Ga # 166
    coordinates: [  0.375000000000000,  0.250000000000000,  0.625000000000000 ]
    mass: 69.723000
    reduced_to: 1
  - symbol: Ga # 167
    coordinates: [  0.625000000000000,  0.250000000000000,  0.625000000000000 ]
    mass: 69.723000
    reduced_to: 1
  - symbol: Ga # 168
    coordinates: [  0.875000000000000,  0.250000000000000,  0.625000000000000 ]
    mass: 69.723000
    reduced_to: 1
  - symbol: Ga # 169
    coordinates: [  0.125000000000000,  0.500000000000000,  0.625000000000000 ]
    mass: 69.723000
    reduced_to: 1
  - symbol: Ga # 170
    coordinates: [  0.375000000000000,  0.500000000000000,  0.625000000000000 ]
    mass: 69.723000
    reduced_to: 1
  - symbol: Ga # 171
    coordinates: [  0.625000000000000,  0.500000000000000,  0.625000000000000 ]
    mass: 69.723000
    reduced_to: 1
  - symbol: Ga # 172
    coordinates: [  0.875000000000000,  0.500000000000000,  0.625000000000000 ]
    mass: 69.723000
    reduced_to: 1
  - symbol: Ga # 173
    coordinates: [  0.125000000000000,  0.750000000000000,  0.625000000000000 ]
    mass: 69.723000
    reduced_to: 1
  - symbol: Ga # 174
    coordinates: [  0.375000000000000,  0.750000000000000,  0.625000000000000 ]
    mass: 69.723000
    reduced_to: 1
  - symbol: Ga # 175
    coordinates: [  0.625000000000000,  0.750000000000000,  0.625000000000000 ]
    mass: 69.723000
    reduced_to: 1
  - symbol: Ga # 176
    coordinates: [  0.875000000000000,  0.750000000000000,  0.625000000000000 ]
    mass: 69.723000
    reduced_to: 1
  - symbol: Ga # 177
    coordinates: [  0.125000000000000,  1.000000000000000,  0.875000000000000 ]
    mass: 69.723000
    reduced_to: 1
  - symbol: Ga # 178
    coordinates: [  0.375000000000000,  1.000000000000000,  0.875000000000000 ]
    mass: 69.723000
    reduced_to: 1
  - symbol: Ga # 179
    coordinates: [  0.625000000000000,  1.000000000000000,  0.875000000000000 ]
    mass: 69.723000
    reduced_to: 1
  - symbol: Ga # 180
    coordinates: [  0.875000000000000,  1.000000000000000,  0.875000000000000 ]
    mass: 69.723000
    reduced_to: 1
  - symbol: Ga # 181
    coordinates: [  0.125000000000000,  0.250000000000000,  0.875000000000000 ]
    mass: 69.723000
    reduced_to: 1
  - symbol: Ga # 182
    coordinates: [  0.375000000000000,  0.250000000000000,  0.875000000000000 ]
    mass: 69.723000
    reduced_to: 1
  - symbol: Ga # 183
    coordinates: [  0.625000000000000,  0.250000000000000,  0.875000000000000 ]
    mass: 69.723000
    reduced_to: 1
  - symbol: Ga # 184
    coordinates: [  0.875000000000000,  0.250000000000000,  0.875000000000000 ]
    mass: 69.723000
    reduced_to: 1
  - symbol: Ga # 185
    coordinates: [  0.125000000000000,  0.500000000000000,  0.875000000000000 ]
    mass: 69.723000
    reduced_to: 1
  - symbol: Ga # 186
    coordinates: [  0.375000000000000,  0.500000000000000,  0.875000000000000 ]
    mass: 69.723000
    reduced_to: 1
  - symbol: Ga # 187
    coordinates: [  0.625000000000000,  0.500000000000000,  0.875000000000000 ]
    mass: 69.723000
    reduced_to: 1
  - symbol: Ga # 188
    coordinates: [  0.875000000000000,  0.500000000000000,  0.875000000000000 ]
    mass: 69.723000
    reduced_to: 1
  - symbol: Ga # 189
    coordinates: [  0.125000000000000,  0.750000000000000,  0.875000000000000 ]
    mass: 69.723000
    reduced_to: 1
  - symbol: Ga # 190
    coordinates: [  0.375000000000000,  0.750000000000000,  0.875000000000000 ]
    mass: 69.723000
    reduced_to: 1
  - symbol: Ga # 191
    coordinates: [  0.625000000000000,  0.750000000000000,  0.875000000000000 ]
    mass: 69.723000
    reduced_to: 1
  - symbol: Ga # 192
    coordinates: [  0.875000000000000,  0.750000000000000,  0.875000000000000 ]
    mass: 69.723000
    reduced_to: 1
  - symbol: Ga # 193
    coordinates: [  0.125000000000000,  0.125000000000000,  1.000000000000000 ]
    mass: 69.723000
    reduced_to: 1
  - symbol: Ga # 194
    coordinates: [  0.375000000000000,  0.125000000000000,  1.000000000000000 ]
    mass: 69.723000
    reduced_to: 1
  - symbol: Ga # 195
    coordinates: [  0.625000000000000,  0.125000000000000,  1.000000000000000 ]
    mass: 69.723000
    reduced_to: 1
  - symbol: Ga # 196