phonopy:
  version: "2.27.0"
  frequency_unit_conversion_factor: 15.633302
  symmetry_tolerance: 1.00000e-03

space_group:
  type: "R-3m"
  number: 166
  Hall_symbol: "-R 3 2\""

primitive_matrix:
- [  0.666666666666666, -0.333333333333333, -0.333333333333333 ]
- [  0.333333333333333,  0.333333333333333, -0.666666666666667 ]
- [  0.333333333333333,  0.333333333333333,  0.333333333333333 ]

supercell_matrix:
- [   5,  -3,   0 ]
- [   5,   3,   0 ]
- [   0,   0,   1 ]

primitive_cell:
  lattice:
  - [     2.197908072602992,    -1.268962817371387,     6.869804000471215 ] # a
  - [     0.000000000000001,     2.537925634742779,     6.869804000471217 ] # b
  - [    -2.197908072602991,    -1.268962817371389,     6.869804000471215 ] # c
  points:
  - symbol: Ag # 1
    coordinates: [  0.499999999999997,  0.500000000000005,  0.499999999999994 ]
    mass: 107.868200
  - symbol: Sb # 2
    coordinates: [  0.999999999999997,  0.000000000000005,  0.999999999999994 ]
    mass: 121.760000
  - symbol: Te # 3
    coordinates: [  0.245882879096175,  0.245882879096185,  0.245882879096173 ]
    mass: 127.600000
  - symbol: Te # 4
    coordinates: [  0.754117120903817,  0.754117120903830,  0.754117120903813 ]
    mass: 127.600000
  reciprocal_lattice: # without 2pi
  - [     0.227489041162603,    -0.131340859152919,     0.048521520164253 ] # a*
  - [    -0.000000000000000,     0.262681718305838,     0.048521520164253 ] # b*
  - [    -0.227489041162603,    -0.131340859152919,     0.048521520164254 ] # c*

unit_cell:
  lattice:
  - [     2.197908072602992,    -3.806888452114169,    -0.000000000000001 ] # a
  - [     2.197908072602992,     3.806888452114169,     0.000000000000001 ] # b
  - [     0.000000000000001,     0.000000000000004,    20.609412001413649 ] # c
  points:
  - symbol: Ag # 1
    coordinates: [  0.333333333333331,  0.666666666666672,  0.166666666666665 ]
    mass: 107.868200
    reduced_to: 1
  - symbol: Ag # 2
    coordinates: [  0.999999999999999,  1.000000000000005,  0.499999999999998 ]
    mass: 107.868200
    reduced_to: 1
  - symbol: Ag # 3
    coordinates: [  0.666666666666665,  0.333333333333338,  0.833333333333331 ]
    mass: 107.868200
    reduced_to: 1
  - symbol: Sb # 4
    coordinates: [ -0.000000000000001,  0.000000000000004, -0.000000000000001 ]
    mass: 121.760000
    reduced_to: 4
  - symbol: Sb # 5
    coordinates: [  0.666666666666665,  0.333333333333338,  0.333333333333332 ]
    mass: 121.760000
    reduced_to: 4
  - symbol: Sb # 6
    coordinates: [  0.333333333333332,  0.666666666666672,  0.666666666666665 ]
    mass: 121.760000
    reduced_to: 4
  - symbol: Te # 7
    coordinates: [ -0.000000000000002,  0.000000000000005,  0.245882879096178 ]
    mass: 127.600000
    reduced_to: 7
  - symbol: Te # 8
    coordinates: [  0.666666666666665,  0.333333333333339,  0.087450454237153 ]
    mass: 127.600000
    reduced_to: 8
  - symbol: Te # 9
    coordinates: [  0.666666666666666,  0.333333333333336,  0.579216212429511 ]
    mass: 127.600000
    reduced_to: 7
  - symbol: Te # 10
    coordinates: [  0.333333333333331,  0.666666666666671,  0.420783787570486 ]
    mass: 127.600000
    reduced_to: 8
  - symbol: Te # 11
    coordinates: [  0.333333333333331,  0.666666666666674,  0.912549545762844 ]
    mass: 127.600000
    reduced_to: 7
  - symbol: Te # 12
    coordinates: [ -0.000000000000000,  0.000000000000002,  0.754117120903819 ]
    mass: 127.600000
    reduced_to: 8

supercell:
  lattice:
  - [    21.979080726029920,     0.000000000000001,    -0.000000000000000 ] # a
  - [     0.000000000000000,    22.841330712685011,     0.000000000000009 ] # b
  - [     0.000000000000001,     0.000000000000004,    20.609412001413649 ] # c
  points:
  - symbol: Ag # 1
    coordinates: [  0.100000000000000,  0.055555555555557,  0.166666666666665 ]
    mass: 107.868200
    reduced_to: 1
  - symbol: Ag # 2
    coordinates: [  0.200000000000000,  0.888888888888890,  0.166666666666665 ]
    mass: 107.868200
    reduced_to: 1
  - symbol: Ag # 3
    coordinates: [  0.300000000000000,  0.722222222222223,  0.166666666666665 ]
    mass: 107.868200
    reduced_to: 1
  - symbol: Ag # 4
    coordinates: [  0.400000000000000,  0.555555555555557,  0.166666666666665 ]
    mass: 107.868200
    reduced_to: 1
  - symbol: Ag # 5
    coordinates: [  0.500000000000000,  0.388888888888890,  0.166666666666665 ]
    mass: 107.868200
    reduced_to: 1
  - symbol: Ag # 6
    coordinates: [  0.600000000000000,  0.222222222222223,  0.166666666666665 ]
    mass: 107.868200
    reduced_to: 1
  - symbol: Ag # 7
    coordinates: [  0.700000000000000,  0.055555555555557,  0.166666666666665 ]
    mass: 107.868200
    reduced_to: 1
  - symbol: Ag # 8
    coordinates: [  0.800000000000000,  0.888888888888890,  0.166666666666665 ]
    mass: 107.868200
    reduced_to: 1
  - symbol: Ag # 9
    coordinates: [  0.200000000000000,  0.222222222222223,  0.166666666666665 ]
    mass: 107.868200
    reduced_to: 1
  - symbol: Ag # 10
    coordinates: [  0.300000000000000,  0.055555555555557,  0.166666666666665 ]
    mass: 107.868200
    reduced_to: 1
  - symbol: Ag # 11
    coordinates: [  0.400000000000000,  0.888888888888890,  0.166666666666665 ]
    mass: 107.868200
    reduced_to: 1
  - symbol: Ag # 12
    coordinates: [  0.500000000000000,  0.722222222222223,  0.166666666666665 ]
    mass: 107.868200
    reduced_to: 1
  - symbol: Ag # 13
    coordinates: [  0.600000000000000,  0.555555555555557,  0.166666666666665 ]
    mass: 107.868200
    reduced_to: 1
  - symbol: Ag # 14
    coordinates: [  0.700000000000000,  0.388888888888890,  0.166666666666665 ]
    mass: 107.868200
    reduced_to: 1
  - symbol: Ag # 15
    coordinates: [  0.800000000000000,  0.222222222222223,  0.166666666666665 ]
    mass: 107.868200
    reduced_to: 1
  - symbol: Ag # 16
    coordinates: [  0.900000000000000,  0.055555555555557,  0.166666666666665 ]
    mass: 107.868200
    reduced_to: 1
  - symbol: Ag # 17
    coordinates: [  0.300000000000000,  0.388888888888890,  0.166666666666665 ]
    mass: 107.868200
    reduced_to: 1
  - symbol: Ag # 18
    coordinates: [  0.400000000000000,  0.222222222222223,  0.166666666666665 ]
    mass: 107.868200
    reduced_to: 1
  - symbol: Ag # 19
    coordinates: [  0.500000000000000,  0.055555555555557,  0.166666666666665 ]
    mass: 107.868200
    reduced_to: 1
  - symbol: Ag # 20
    coordinates: [  0.600000000000000,  0.888888888888890,  0.166666666666665 ]
    mass: 107.868200
    reduced_to: 1
  - symbol: Ag # 21
    coordinates: [  0.700000000000000,  0.722222222222223,  0.166666666666665 ]
    mass: 107.868200
    reduced_to: 1
  - symbol: Ag # 22
    coordinates: [  0.800000000000000,  0.555555555555557,  0.166666666666665 ]
    mass: 107.868200
    reduced_to: 1
  - symbol: Ag # 23
    coordinates: [  0.900000000000000,  0.388888888888890,  0.166666666666665 ]
    mass: 107.868200
    reduced_to: 1
  - symbol: Ag # 24
    coordinates: [  0.000000000000000,  0.222222222222223,  0.166666666666665 ]
    mass: 107.868200
    reduced_to: 1
  - symbol: Ag # 25
    coordinates: [  0.900000000000000,  0.722222222222223,  0.166666666666665 ]
    mass: 107.868200
    reduced_to: 1
  - symbol: Ag # 26
    coordinates: [  0.000000000000000,  0.555555555555557,  0.166666666666665 ]
    mass: 107.868200
    reduced_to: 1
  - symbol: Ag # 27
    coordinates: [  0.100000000000000,  0.388888888888890,  0.166666666666665 ]
    mass: 107.868200
    reduced_to: 1
  - symbol: Ag # 28
    coordinates: [  0.000000000000000,  0.888888888888890,  0.166666666666665 ]
    mass: 107.868200
    reduced_to: 1
  - symbol: Ag # 29
    coordinates: [  0.100000000000000,  0.722222222222223,  0.166666666666665 ]
    mass: 107.868200
    reduced_to: 1
  - symbol: Ag # 30
    coordinates: [  0.200000000000000,  0.555555555555557,  0.166666666666665 ]
    mass: 107.868200
    reduced_to: 1
  - symbol: Ag # 31
    coordinates: [  0.200000000000000,  0.000000000000001,  0.499999999999998 ]
    mass: 107.868200
    reduced_to: 1
  - symbol: Ag # 32
    coordinates: [  0.300000000000000,  0.833333333333334,  0.499999999999998 ]
    mass: 107.868200
    reduced_to: 1
  - symbol: Ag # 33
    coordinates: [  0.400000000000000,  0.666666666666668,  0.499999999999998 ]
    mass: 107.868200
    reduced_to: 1
  - symbol: Ag # 34
    coordinates: [  0.500000000000000,  0.500000000000001,  0.499999999999998 ]
    mass: 107.868200
    reduced_to: 1
  - symbol: Ag # 35
    coordinates: [  0.600000000000000,  0.333333333333334,  0.499999999999998 ]
    mass: 107.868200
    reduced_to: 1
  - symbol: Ag # 36
    coordinates: [  0.700000000000000,  0.166666666666668,  0.499999999999998 ]
    mass: 107.868200
    reduced_to: 1
  - symbol: Ag # 37
    coordinates: [  0.800000000000000,  0.000000000000001,  0.499999999999998 ]
    mass: 107.868200
    reduced_to: 1
  - symbol: Ag # 38
    coordinates: [  0.900000000000000,  0.833333333333335,  0.499999999999998 ]
    mass: 107.868200
    reduced_to: 1
  - symbol: Ag # 39
    coordinates: [  0.300000000000000,  0.166666666666668,  0.499999999999998 ]
    mass: 107.868200
    reduced_to: 1
  - symbol: Ag # 40
    coordinates: [  0.400000000000000,  0.000000000000001,  0.499999999999998 ]
    mass: 107.868200
    reduced_to: 1
  - symbol: Ag # 41
    coordinates: [  0.500000000000000,  0.833333333333334,  0.499999999999998 ]
    mass: 107.868200
    reduced_to: 1
  - symbol: Ag # 42
    coordinates: [  0.600000000000000,  0.666666666666668,  0.499999999999998 ]
    mass: 107.868200
    reduced_to: 1
  - symbol: Ag # 43
    coordinates: [  0.700000000000000,  0.500000000000001,  0.499999999999998 ]
    mass: 107.868200
    reduced_to: 1
  - symbol: Ag # 44
    coordinates: [  0.800000000000000,  0.333333333333334,  0.499999999999998 ]
    mass: 107.868200
    reduced_to: 1
  - symbol: Ag # 45
    coordinates: [  0.900000000000000,  0.166666666666668,  0.499999999999998 ]
    mass: 107.868200
    reduced_to: 1
  - symbol: Ag # 46
    coordinates: [  0.000000000000000,  0.000000000000001,  0.499999999999998 ]
    mass: 107.868200
    reduced_to: 1
  - symbol: Ag # 47
    coordinates: [  0.400000000000000,  0.333333333333334,  0.499999999999998 ]
    mass: 107.868200
    reduced_to: 1
  - symbol: Ag # 48
    coordinates: [  0.500000000000000,  0.166666666666668,  0.499999999999998 ]
    mass: 107.868200
    reduced_to: 1
  - symbol: Ag # 49
    coordinates: [  0.600000000000000,  0.000000000000001,  0.499999999999998 ]
    mass: 107.868200
    reduced_to: 1
  - symbol: Ag # 50
    coordinates: [  0.700000000000001,  0.833333333333334,  0.499999999999998 ]
    mass: 107.868200
    reduced_to: 1
  - symbol: Ag # 51
    coordinates: [  0.800000000000000,  0.666666666666668,  0.499999999999998 ]
    mass: 107.868200
    reduced_to: 1
  - symbol: Ag # 52
    coordinates: [  0.900000000000000,  0.500000000000001,  0.499999999999998 ]
    mass: 107.868200
    reduced_to: 1
  - symbol: Ag # 53
    coordinates: [  0.000000000000000,  0.333333333333335,  0.499999999999998 ]
    mass: 107.868200
    reduced_to: 1
  - symbol: Ag # 54
    coordinates: [  0.100000000000000,  0.166666666666668,  0.499999999999998 ]
    mass: 107.868200
    reduced_to: 1
  - symbol: Ag # 55
    coordinates: [  0.000000000000000,  0.666666666666668,  0.499999999999998 ]
    mass: 107.868200
    reduced_to: 1
  - symbol: Ag # 56
    coordinates: [  0.100000000000000,  0.500000000000001,  0.499999999999998 ]
    mass: 107.868200
    reduced_to: 1
  - symbol: Ag # 57
    coordinates: [  0.200000000000000,  0.333333333333334,  0.499999999999998 ]
    mass: 107.868200
    reduced_to: 1
  - symbol: Ag # 58
    coordinates: [  0.100000000000001,  0.833333333333334,  0.499999999999998 ]
    mass: 107.868200
    reduced_to: 1
  - symbol: Ag # 59
    coordinates: [  0.200000000000000,  0.666666666666668,  0.499999999999998 ]
    mass: 107.868200
    reduced_to: 1
  - symbol: Ag # 60
    coordinates: [  0.300000000000000,  0.500000000000001,  0.499999999999998 ]
    mass: 107.868200
    reduced_to: 1
  - symbol: Ag # 61
    coordinates: [  0.100000000000000,  0.944444444444445,  0.833333333333331 ]
    mass: 107.868200
    reduced_to: 1
  - symbol: Ag # 62
    coordinates: [  0.200000000000000,  0.777777777777779,  0.833333333333331 ]
    mass: 107.868200
    reduced_to: 1
  - symbol: Ag # 63
    coordinates: [  0.300000000000000,  0.611111111111112,  0.833333333333331 ]
    mass: 107.868200
    reduced_to: 1
  - symbol: Ag # 64
    coordinates: [  0.400000000000000,  0.444444444444446,  0.833333333333331 ]
    mass: 107.868200
    reduced_to: 1
  - symbol: Ag # 65
    coordinates: [  0.500000000000000,  0.277777777777779,  0.833333333333331 ]
    mass: 107.868200
    reduced_to: 1
  - symbol: Ag # 66
    coordinates: [  0.600000000000000,  0.111111111111112,  0.833333333333331 ]
    mass: 107.868200
    reduced_to: 1
  - symbol: Ag # 67
    coordinates: [  0.700000000000000,  0.944444444444446,  0.833333333333331 ]
    mass: 107.868200
    reduced_to: 1
  - symbol: Ag # 68
    coordinates: [  0.800000000000000,  0.777777777777779,  0.833333333333331 ]
    mass: 107.868200
    reduced_to: 1
  - symbol: Ag # 69
    coordinates: [  0.200000000000000,  0.111111111111112,  0.833333333333331 ]
    mass: 107.868200
    reduced_to: 1
  - symbol: Ag # 70
    coordinates: [  0.300000000000000,  0.944444444444445,  0.833333333333331 ]
    mass: 107.868200
    reduced_to: 1
  - symbol: Ag # 71
    coordinates: [  0.400000000000000,  0.777777777777779,  0.833333333333331 ]
    mass: 107.868200
    reduced_to: 1
  - symbol: Ag # 72
    coordinates: [  0.500000000000000,  0.611111111111112,  0.833333333333331 ]
    mass: 107.868200
    reduced_to: 1
  - symbol: Ag # 73
    coordinates: [  0.600000000000000,  0.444444444444446,  0.833333333333331 ]
    mass: 107.868200
    reduced_to: 1
  - symbol: Ag # 74
    coordinates: [  0.700000000000000,  0.277777777777779,  0.833333333333331 ]
    mass: 107.868200
    reduced_to: 1
  - symbol: Ag # 75
    coordinates: [  0.800000000000000,  0.111111111111112,  0.833333333333331 ]
    mass: 107.868200
    reduced_to: 1
  - symbol: Ag # 76
    coordinates: [  0.900000000000000,  0.944444444444446,  0.833333333333331 ]
    mass: 107.868200
    reduced_to: 1
  - symbol: Ag # 77
    coordinates: [  0.300000000000000,  0.277777777777779,  0.833333333333331 ]
    mass: 107.868200
    reduced_to: 1
  - symbol: Ag # 78
    coordinates: [  0.400000000000000,  0.111111111111112,  0.833333333333331 ]
    mass: 107.868200
    reduced_to: 1
  - symbol: Ag # 79
    coordinates: [  0.500000000000000,  0.944444444444445,  0.833333333333331 ]
    mass: 107.868200
    reduced_to: 1
  - symbol: Ag # 80
    coordinates: [  0.600000000000000,  0.777777777777779,  0.833333333333331 ]
    mass: 107.868200
    reduced_to: 1
  - symbol: Ag # 81
    coordinates: [  0.700000000000000,  0.611111111111112,  0.833333333333331 ]
    mass: 107.868200
    reduced_to: 1
  - symbol: Ag # 82
    coordinates: [  0.800000000000000,  0.444444444444445,  0.833333333333331 ]
    mass: 107.868200
    reduced_to: 1
  - symbol: Ag # 83
    coordinates: [  0.900000000000000,  0.277777777777779,  0.833333333333331 ]
    mass: 107.868200
    reduced_to: 1
  - symbol: Ag # 84
    coordinates: [  0.000000000000000,  0.111111111111112,  0.833333333333331 ]
    mass: 107.868200
    reduced_to: 1
  - symbol: Ag # 85
    coordinates: [  0.900000000000000,  0.611111111111112,  0.833333333333331 ]
    mass: 107.868200
    reduced_to: 1
  - symbol: Ag # 86
    coordinates: [  0.000000000000000,  0.444444444444446,  0.833333333333331 ]
    mass: 107.868200
    reduced_to: 1
  - symbol: Ag # 87
    coordinates: [  0.100000000000000,  0.277777777777779,  0.833333333333331 ]
    mass: 107.868200
    reduced_to: 1
  - symbol: Ag # 88
    coordinates: [  0.000000000000000,  0.777777777777779,  0.833333333333331 ]
    mass: 107.868200
    reduced_to: 1
  - symbol: Ag # 89
    coordinates: [  0.100000000000000,  0.611111111111112,  0.833333333333331 ]
    mass: 107.868200
    reduced_to: 1
  - symbol: Ag # 90
    coordinates: [  0.200000000000000,  0.444444444444445,  0.833333333333331 ]
    mass: 107.868200
    reduced_to: 1
  - symbol: Sb # 91
    coordinates: [  0.000000000000000,  0.000000000000001,  0.999999999999999 ]
    mass: 121.760000
    reduced_to: 91
  - symbol: Sb # 92
    coordinates: [  0.100000000000000,  0.833333333333334,  0.999999999999999 ]
    mass: 121.760000
    reduced_to: 91
  - symbol: Sb # 93
    coordinates: [  0.200000000000000,  0.666666666666668,  0.999999999999999 ]
    mass: 121.760000
    reduced_to: 91
  - symbol: Sb # 94
    coordinates: [  0.300000000000000,  0.500000000000001,  0.999999999999999 ]
    mass: 121.760000
    reduced_to: 91
  - symbol: Sb # 95
    coordinates: [  0.400000000000000,  0.333333333333334,  0.999999999999999 ]
    mass: 121.760000
    reduced_to: 91
  - symbol: Sb # 96
    coordinates: [  0.500000000000000,  0.166666666666668,  0.999999999999999 ]
    mass: 121.760000
    reduced_to: 91
  - symbol: Sb # 97
    coordinates: [  0.600000000000000,  0.000000000000001,  0.999999999999999 ]
    mass: 121.760000
    reduced_to: 91
  - symbol: Sb # 98
    coordinates: [  0.700000000000000,  0.833333333333334,  0.999999999999999 ]
    mass: 121.760000
    reduced_to: 91
  - symbol: Sb # 99
    coordinates: [  0.100000000000000,  0.166666666666668,  0.999999999999999 ]
    mass: 121.760000
    reduced_to: 91
  - symbol: Sb # 100
    coordinates: [  0.200000000000000,  0.000000000000001,  0.999999999999999 ]
    mass: 121.760000
    reduced_to: 91
  - symbol: Sb # 101
    coordinates: [  0.300000000000000,  0.833333333333334,  0.999999999999999 ]
    mass: 121.760000
    reduced_to: 91
  - symbol: Sb # 102
    coordinates: [  0.400000000000000,  0.666666666666668,  0.999999999999999 ]
    mass: 121.760000
    reduced_to: 91
  - symbol: Sb # 103
    coordinates: [  0.500000000000000,  0.500000000000001,  0.999999999999999 ]
    mass: 121.760000
    reduced_to: 91
  - symbol: Sb # 104
    coordinates: [  0.600000000000000,  0.333333333333334,  0.999999999999999 ]
    mass: 121.760000
    reduced_to: 91
  - symbol: Sb # 105
    coordinates: [  0.700000000000000,  0.166666666666668,  0.999999999999999 ]
    mass: 121.760000
    reduced_to: 91
  - symbol: Sb # 106
    coordinates: [  0.800000000000000,  0.000000000000001,  0.999999999999999 ]
    mass: 121.760000
    reduced_to: 91
  - symbol: Sb # 107
    coordinates: [  0.200000000000000,  0.333333333333334,  0.999999999999999 ]
    mass: 121.760000
    reduced_to: 91
  - symbol: Sb # 108
    coordinates: [  0.300000000000000,  0.166666666666668,  0.999999999999999 ]
    mass: 121.760000
    reduced_to: 91
  - symbol: Sb # 109
    coordinates: [  0.400000000000000,  0.000000000000001,  0.999999999999999 ]
    mass: 121.760000
    reduced_to: 91
  - symbol: Sb # 110
    coordinates: [  0.500000000000000,  0.833333333333334,  0.999999999999999 ]
    mass: 121.760000
    reduced_to: 91
  - symbol: Sb # 111
    coordinates: [  0.600000000000000,  0.666666666666668,  0.999999999999999 ]
    mass: 121.760000
    reduced_to: 91
  - symbol: Sb # 112
    coordinates: [  0.700000000000000,  0.500000000000001,  0.999999999999999 ]
    mass: 121.760000
    reduced_to: 91
  - symbol: Sb # 113
    coordinates: [  0.800000000000000,  0.333333333333334,  0.999999999999999 ]
    mass: 121.760000
    reduced_to: 91
  - symbol: Sb # 114
    coordinates: [  0.900000000000000,  0.166666666666668,  0.999999999999999 ]
    mass: 121.760000
    reduced_to: 91
  - symbol: Sb # 115
    coordinates: [  0.800000000000000,  0.666666666666668,  0.999999999999999 ]
    mass: 121.760000
    reduced_to: 91
  - symbol: Sb # 116
    coordinates: [  0.900000000000000,  0.500000000000001,  0.999999999999999 ]
    mass: 121.760000
    reduced_to: 91
  - symbol: Sb # 117
    coordinates: [  0.000000000000000,  0.333333333333334,  0.999999999999999 ]
    mass: 121.760000
    reduced_to: 91
  - symbol: Sb # 118
    coordinates: [  0.900000000000000,  0.833333333333334,  0.999999999999999 ]
    mass: 121.760000
    reduced_to: 91
  - symbol: Sb # 119
    coordinates: [  0.000000000000000,  0.666666666666668,  0.999999999999999 ]
    mass: 121.760000
    reduced_to: 91
  - symbol: Sb # 120
    coordinates: [  0.100000000000000,  0.500000000000001,  0.999999999999999 ]
    mass: 121.760000
    reduced_to: 91
  - symbol: Sb # 121
    coordinates: [  0.100000000000000,  0.944444444444446,  0.333333333333332 ]
    mass: 121.760000
    reduced_to: 91
  - symbol: Sb # 122
    coordinates: [  0.200000000000000,  0.777777777777779,  0.333333333333332 ]
    mass: 121.760000
    reduced_to: 91
  - symbol: Sb # 123
    coordinates: [  0.300000000000000,  0.611111111111112,  0.333333333333332 ]
    mass: 121.760000
    reduced_to: 91
  - symbol: Sb # 124
    coordinates: [  0.400000000000000,  0.444444444444446,  0.333333333333332 ]
    mass: 121.760000
    reduced_to: 91
  - symbol: Sb # 125
    coordinates: [  0.500000000000000,  0.277777777777779,  0.333333333333332 ]
    mass: 121.760000
    reduced_to: 91
  - symbol: Sb # 126
    coordinates: [  0.600000000000000,  0.111111111111112,  0.333333333333332 ]
    mass: 121.760000
    reduced_to: 91
  - symbol: Sb # 127
    coordinates: [  0.700000000000000,  0.944444444444446,  0.333333333333332 ]
    mass: 121.760000
    reduced_to: 91
  - symbol: Sb # 128
    coordinates: [  0.800000000000000,  0.777777777777779,  0.333333333333332 ]
    mass: 121.760000
    reduced_to: 91
  - symbol: Sb # 129
    coordinates: [  0.200000000000000,  0.111111111111112,  0.333333333333332 ]
    mass: 121.760000
    reduced_to: 91
  - symbol: Sb # 130
    coordinates: [  0.300000000000000,  0.944444444444446,  0.333333333333332 ]
    mass: 121.760000
    reduced_to: 91
  - symbol: Sb # 131
    coordinates: [  0.400000000000000,  0.777777777777779,  0.333333333333332 ]
    mass: 121.760000
    reduced_to: 91
  - symbol: Sb # 132
    coordinates: [  0.500000000000000,  0.611111111111112,  0.333333333333332 ]
    mass: 121.760000
    reduced_to: 91
  - symbol: Sb # 133
    coordinates: [  0.600000000000000,  0.444444444444446,  0.333333333333332 ]
    mass: 121.760000
    reduced_to: 91
  - symbol: Sb # 134
    coordinates: [  0.700000000000000,  0.277777777777779,  0.333333333333332 ]
    mass: 121.760000
    reduced_to: 91
  - symbol: Sb # 135
    coordinates: [  0.800000000000000,  0.111111111111112,  0.333333333333332 ]
    mass: 121.760000
    reduced_to: 91
  - symbol: Sb # 136
    coordinates: [  0.900000000000000,  0.944444444444446,  0.333333333333332 ]
    mass: 121.760000
    reduced_to: 91
  - symbol: Sb # 137
    coordinates: [  0.300000000000000,  0.277777777777779,  0.333333333333332 ]
    mass: 121.760000
    reduced_to: 91
  - symbol: Sb # 138
    coordinates: [  0.400000000000000,  0.111111111111112,  0.333333333333332 ]
    mass: 121.760000
    reduced_to: 91
  - symbol: Sb # 139
    coordinates: [  0.500000000000000,  0.944444444444446,  0.333333333333332 ]
    mass: 121.760000
    reduced_to: 91
  - symbol: Sb # 140
    coordinates: [  0.600000000000000,  0.777777777777779,  0.333333333333332 ]
    mass: 121.760000
    reduced_to: 91
  - symbol: Sb # 141
    coordinates: [  0.700000000000000,  0.611111111111112,  0.333333333333332 ]
    mass: 121.760000
    reduced_to: 91
  - symbol: Sb # 142
    coordinates: [  0.800000000000000,  0.444444444444446,  0.333333333333332 ]
    mass: 121.760000
    reduced_to: 91
  - symbol: Sb # 143
    coordinates: [  0.900000000000000,  0.277777777777779,  0.333333333333332 ]
    mass: 121.760000
    reduced_to: 91
  - symbol: Sb # 144
    coordinates: [  0.000000000000000,  0.111111111111112,  0.333333333333332 ]
    mass: 121.760000
    reduced_to: 91
  - symbol: Sb # 145
    coordinates: [  0.900000000000000,  0.611111111111112,  0.333333333333332 ]
    mass: 121.760000
    reduced_to: 91
  - symbol: Sb # 146
    coordinates: [  0.000000000000000,  0.444444444444446,  0.333333333333332 ]
    mass: 121.760000
    reduced_to: 91
  - symbol: Sb # 147
    coordinates: [  0.100000000000001,  0.277777777777779,  0.333333333333332 ]
    mass: 121.760000
    reduced_to: 91
  - symbol: Sb # 148
    coordinates: [  0.000000000000000,  0.777777777777779,  0.333333333333332 ]
    mass: 121.760000
    reduced_to: 91
  - symbol: Sb # 149
    coordinates: [  0.100000000000000,  0.611111111111112,  0.333333333333332 ]
    mass: 121.760000
    reduced_to: 91
  - symbol: Sb # 150
    coordinates: [  0.200000000000000,  0.444444444444446,  0.333333333333332 ]
    mass: 121.760000
    reduced_to: 91
  - symbol: Sb # 151
    coordinates: [  0.100000000000000,  0.055555555555557,  0.666666666666665 ]
    mass: 121.760000
    reduced_to: 91
  - symbol: Sb # 152
    coordinates: [  0.200000000000000,  0.888888888888890,  0.666666666666665 ]
    mass: 121.760000
    reduced_to: 91
  - symbol: Sb # 153
    coordinates: [  0.300000000000000,  0.722222222222223,  0.666666666666665 ]
    mass: 121.760000
    reduced_to: 91
  - symbol: Sb # 154
    coordinates: [  0.400000000000000,  0.555555555555557,  0.666666666666665 ]
    mass: 121.760000
    reduced_to: 91
  - symbol: Sb # 155
    coordinates: [  0.500000000000000,  0.388888888888890,  0.666666666666665 ]
    mass: 121.760000
    reduced_to: 91
  - symbol: Sb # 156
    coordinates: [  0.600000000000000,  0.222222222222223,  0.666666666666665 ]
    mass: 121.760000
    reduced_to: 91
  - symbol: Sb # 157
    coordinates: [  0.700000000000000,  0.055555555555557,  0.666666666666665 ]
    mass: 121.760000
    reduced_to: 91
  - symbol: Sb # 158
    coordinates: [  0.800000000000000,  0.888888888888890,  0.666666666666665 ]
    mass: 121.760000
    reduced_to: 91
  - symbol: Sb # 159
    coordinates: [  0.200000000000000,  0.222222222222223,  0.666666666666665 ]
    mass: 121.760000
    reduced_to: 91
  - symbol: Sb # 160
    coordinates: [  0.300000000000000,  0.055555555555557,  0.666666666666665 ]
    mass: 121.760000
    reduced_to: 91
  - symbol: Sb # 161
    coordinates: [  0.400000000000000,  0.888888888888890,  0.666666666666665 ]
    mass: 121.760000
    reduced_to: 91
  - symbol: Sb # 162
    coordinates: [  0.500000000000000,  0.722222222222223,  0.666666666666665 ]
    mass: 121.760000
    reduced_to: 91
  - symbol: Sb # 163
    coordinates: [  0.600000000000000,  0.555555555555557,  0.666666666666665 ]
    mass: 121.760000
    reduced_to: 91
  - symbol: Sb # 164
    coordinates: [  0.700000000000000,  0.388888888888890,  0.666666666666665 ]
    mass: 121.760000
    reduced_to: 91
  - symbol: Sb # 165
    coordinates: [  0.800000000000000,  0.222222222222223,  0.666666666666665 ]
    mass: 121.760000
    reduced_to: 91
  - symbol: Sb # 166
    coordinates: [  0.900000000000000,  0.055555555555557,  0.666666666666665 ]
    mass: 121.760000
    reduced_to: 91
  - symbol: Sb # 167
    coordinates: [  0.300000000000000,  0.388888888888890,  0.666666666666665 ]
    mass: 121.760000
    reduced_to: 91
  - symbol: Sb # 168
    coordinates: [  0.400000000000000,  0.222222222222223,  0.666666666666665 ]
    mass: 121.760000
    reduced_to: 91
  - symbol: Sb # 169
    coordinates: [  0.500000000000000,  0.055555555555557,  0.666666666666665 ]
    mass: 121.760000
    reduced_to: 91
  - symbol: Sb # 170
    coordinates: [  0.600000000000000,  0.888888888888890,  0.666666666666665 ]
    mass: 121.760000
    reduced_to: 91
  - symbol: Sb # 171
    coordinates: [  0.700000000000000,  0.722222222222223,  0.666666666666665 ]
    mass: 121.760000
    reduced_to: 91
  - symbol: Sb # 172
    coordinates: [  0.800000000000000,  0.555555555555557,  0.666666666666665 ]
    mass: 121.760000
    reduced_to: 91
  - symbol: Sb # 173
    coordinates: [  0.900000000000000,  0.388888888888890,  0.666666666666665 ]
    mass: 121.760000
    reduced_to: 91
  - symbol: Sb # 174
    coordinates: [  0.000000000000000,  0.222222222222223,  0.666666666666665 ]
    mass: 121.760000
    reduced_to: 91
  - symbol: Sb # 175
    coordinates: [  0.900000000000000,  0.722222222222223,  0.666666666666665 ]
    mass: 121.760000
    reduced_to: 91
  - symbol: Sb # 176
    coordinates: [  0.000000000000000,  0.555555555555557,  0.666666666666665 ]
    mass: 121.760000
    reduced_to: 91
  - symbol: Sb # 177
    coordinates: [  0.100000000000000,  0.388888888888890,  0.666666666666665 ]
    mass: 121.760000
    reduced_to: 91
  - symbol: Sb # 178
    coordinates: [  0.000000000000000,  0.888888888888890,  0.666666666666665 ]
    mass: 121.760000
    reduced_to: 91
  - symbol: Sb # 179
    coordinates: [  0.100000000000000,  0.722222222222223,  0.666666666666665 ]
    mass: 121.760000
    reduced_to: 91
  - symbol: Sb # 180
    coordinates: [  0.200000000000000,  0.555555555555557,  0.666666666666665 ]
    mass: 121.760000
    reduced_to: 91
  - symbol: Te # 181
    coordinates: [  0.000000000000000,  0.000000000000001,  0.245882879096178 ]
    mass: 127.600000
    reduced_to: 181
  - symbol: Te # 182
    coordinates: [  0.100000000000000,  0.833333333333334,  0.245882879096178 ]
    mass: 127.600000
    reduced_to: 181
  - symbol: Te # 183
    coordinates: [  0.200000000000000,  0.666666666666668,  0.245882879096178 ]
    mass: 127.600000
    reduced_to: 181
  - symbol: Te # 184
    coordinates: [  0.300000000000000,  0.500000000000001,  0.245882879096178 ]
    mass: 127.600000
    reduced_to: 181
  - symbol: Te # 185
    coordinates: [  0.400000000000000,  0.333333333333334,  0.245882879096178 ]
    mass: 127.600000
    reduced_to: 181
  - symbol: Te # 186
    coordinates: [  0.500000000000000,  0.166666666666668,  0.245882879096178 ]
    mass: 127.600000
    reduced_to: 181
  - symbol: Te # 187
    coordinates: [  0.600000000000000,  0.000000000000001,  0.245882879096178 ]
    mass: 127.600000
    reduced_to: 181
  - symbol: Te # 188
    coordinates: [  0.700000000000000,  0.833333333333335,  0.245882879096178 ]