phonopy:
  version: "2.21.0"
  frequency_unit_conversion_factor: 15.633302
  symmetry_tolerance: 1.00000e-04

space_group:
  type: "P6_3/mmc"
  number: 194
  Hall_symbol: "-P 6c 2c"

primitive_matrix:
- [  1.000000000000000, -1.000000000000000,  0.000000000000000 ]
- [  1.000000000000000, -0.000000000000000,  0.000000000000000 ]
- [  0.000000000000000,  0.000000000000000,  1.000000000000000 ]

supercell_matrix:
- [   4,   4,   0 ]
- [  -2,   2,   0 ]
- [   0,   0,   2 ]

primitive_cell:
  lattice:
  - [     6.125217610325015,     0.000000000000000,     0.000000000000000 ] # a
  - [    -3.062608805162507,     5.304594054249272,     0.000000000000000 ] # b
  - [     0.000000000000000,     0.000000000000000,    10.877388384878110 ] # c
  points:
  - symbol: K  # 1
    coordinates: [  0.666666666666664,  0.333333333333327,  0.919090385981029 ]
    mass: 39.098300
  - symbol: K  # 2
    coordinates: [  0.333333333333335,  0.666666666666670,  0.419090385981029 ]
    mass: 39.098300
  - symbol: K  # 3
    coordinates: [  0.000000000000000,  0.000000000000000,  0.250000000000000 ]
    mass: 39.098300
  - symbol: K  # 4
    coordinates: [  0.000000000000000,  0.000000000000000,  0.750000000000000 ]
    mass: 39.098300
  - symbol: K  # 5
    coordinates: [  0.666666666666664,  0.333333333333327,  0.580909614018971 ]
    mass: 39.098300
  - symbol: K  # 6
    coordinates: [  0.333333333333335,  0.666666666666670,  0.080909614018971 ]
    mass: 39.098300
  - symbol: Sb # 7
    coordinates: [  0.333333333333335,  0.666666666666670,  0.750000000000000 ]
    mass: 121.760000
  - symbol: Sb # 8
    coordinates: [  0.666666666666664,  0.333333333333327,  0.250000000000000 ]
    mass: 121.760000
  reciprocal_lattice: # without 2pi
  - [     0.163259505803409,     0.094257919623363,     0.000000000000000 ] # a*
  - [    -0.000000000000000,     0.188515839246727,     0.000000000000000 ] # b*
  - [     0.000000000000000,     0.000000000000000,     0.091933832333340 ] # c*

unit_cell:
  lattice:
  - [     3.062608805162507,    -5.304594054249274,     0.000000000000000 ] # a
  - [     3.062608805162507,     5.304594054249273,     0.000000000000000 ] # b
  - [     0.000000000000000,     0.000000000000000,    10.877388384878111 ] # c
  points:
  - symbol: K  # 1
    coordinates: [  0.333333333333336,  0.666666666666664,  0.919090385981029 ]
    mass: 39.098300
    reduced_to: 1
  - symbol: K  # 2
    coordinates: [  0.666666666666664,  0.333333333333336,  0.419090385981029 ]
    mass: 39.098300
    reduced_to: 2
  - symbol: K  # 3
    coordinates: [  0.000000000000000,  0.000000000000000,  0.250000000000000 ]
    mass: 39.098300
    reduced_to: 3
  - symbol: K  # 4
    coordinates: [  0.000000000000000,  0.000000000000000,  0.750000000000000 ]
    mass: 39.098300
    reduced_to: 4
  - symbol: K  # 5
    coordinates: [  0.333333333333336,  0.666666666666664,  0.580909614018971 ]
    mass: 39.098300
    reduced_to: 5
  - symbol: K  # 6
    coordinates: [  0.666666666666664,  0.333333333333336,  0.080909614018971 ]
    mass: 39.098300
    reduced_to: 6
  - symbol: Sb # 7
    coordinates: [  0.666666666666664,  0.333333333333336,  0.750000000000000 ]
    mass: 121.760000
    reduced_to: 7
  - symbol: Sb # 8
    coordinates: [  0.333333333333336,  0.666666666666664,  0.250000000000000 ]
    mass: 121.760000
    reduced_to: 8

supercell:
  lattice:
  - [     6.125217610325016,   -31.827564325495644,     0.000000000000000 ] # a
  - [    18.375652830975042,   -10.609188108498550,     0.000000000000000 ] # b
  - [     0.000000000000000,     0.000000000000000,    21.754776769756223 ] # c
  points:
  - symbol: K  # 1
    coordinates: [  0.875000000000001,  0.208333333333333,  0.459545192990515 ]
    mass: 39.098300
    reduced_to: 1
  - symbol: K  # 2
    coordinates: [  0.000000000000001,  0.333333333333333,  0.459545192990515 ]
    mass: 39.098300
    reduced_to: 1
  - symbol: K  # 3
    coordinates: [  0.125000000000001,  0.458333333333333,  0.459545192990515 ]
    mass: 39.098300
    reduced_to: 1
  - symbol: K  # 4
    coordinates: [  0.250000000000001,  0.583333333333333,  0.459545192990515 ]
    mass: 39.098300
    reduced_to: 1
  - symbol: K  # 5
    coordinates: [  0.375000000000001,  0.708333333333333,  0.459545192990515 ]
    mass: 39.098300
    reduced_to: 1
  - symbol: K  # 6
    coordinates: [  0.500000000000001,  0.833333333333333,  0.459545192990515 ]
    mass: 39.098300
    reduced_to: 1
  - symbol: K  # 7
    coordinates: [  0.625000000000001,  0.958333333333333,  0.459545192990515 ]
    mass: 39.098300
    reduced_to: 1
  - symbol: K  # 8
    coordinates: [  0.750000000000001,  0.083333333333333,  0.459545192990515 ]
    mass: 39.098300
    reduced_to: 1
  - symbol: K  # 9
    coordinates: [  0.625000000000001,  0.458333333333333,  0.459545192990515 ]
    mass: 39.098300
    reduced_to: 1
  - symbol: K  # 10
    coordinates: [  0.750000000000001,  0.583333333333333,  0.459545192990515 ]
    mass: 39.098300
    reduced_to: 1
  - symbol: K  # 11
    coordinates: [  0.875000000000001,  0.708333333333333,  0.459545192990515 ]
    mass: 39.098300
    reduced_to: 1
  - symbol: K  # 12
    coordinates: [  0.000000000000001,  0.833333333333333,  0.459545192990515 ]
    mass: 39.098300
    reduced_to: 1
  - symbol: K  # 13
    coordinates: [  0.125000000000001,  0.958333333333333,  0.459545192990515 ]
    mass: 39.098300
    reduced_to: 1
  - symbol: K  # 14
    coordinates: [  0.250000000000001,  0.083333333333333,  0.459545192990515 ]
    mass: 39.098300
    reduced_to: 1
  - symbol: K  # 15
    coordinates: [  0.375000000000001,  0.208333333333333,  0.459545192990515 ]
    mass: 39.098300
    reduced_to: 1
  - symbol: K  # 16
    coordinates: [  0.500000000000001,  0.333333333333333,  0.459545192990515 ]
    mass: 39.098300
    reduced_to: 1
  - symbol: K  # 17
    coordinates: [  0.875000000000001,  0.208333333333333,  0.959545192990515 ]
    mass: 39.098300
    reduced_to: 1
  - symbol: K  # 18
    coordinates: [  0.000000000000001,  0.333333333333333,  0.959545192990515 ]
    mass: 39.098300
    reduced_to: 1
  - symbol: K  # 19
    coordinates: [  0.125000000000001,  0.458333333333333,  0.959545192990515 ]
    mass: 39.098300
    reduced_to: 1
  - symbol: K  # 20
    coordinates: [  0.250000000000001,  0.583333333333333,  0.959545192990515 ]
    mass: 39.098300
    reduced_to: 1
  - symbol: K  # 21
    coordinates: [  0.375000000000001,  0.708333333333333,  0.959545192990515 ]
    mass: 39.098300
    reduced_to: 1
  - symbol: K  # 22
    coordinates: [  0.500000000000001,  0.833333333333333,  0.959545192990515 ]
    mass: 39.098300
    reduced_to: 1
  - symbol: K  # 23
    coordinates: [  0.625000000000001,  0.958333333333333,  0.959545192990515 ]
    mass: 39.098300
    reduced_to: 1
  - symbol: K  # 24
    coordinates: [  0.750000000000001,  0.083333333333333,  0.959545192990515 ]
    mass: 39.098300
    reduced_to: 1
  - symbol: K  # 25
    coordinates: [  0.625000000000001,  0.458333333333333,  0.959545192990515 ]
    mass: 39.098300
    reduced_to: 1
  - symbol: K  # 26
    coordinates: [  0.750000000000001,  0.583333333333333,  0.959545192990515 ]
    mass: 39.098300
    reduced_to: 1
  - symbol: K  # 27
    coordinates: [  0.875000000000001,  0.708333333333333,  0.959545192990515 ]
    mass: 39.098300
    reduced_to: 1
  - symbol: K  # 28
    coordinates: [  0.000000000000001,  0.833333333333333,  0.959545192990515 ]
    mass: 39.098300
    reduced_to: 1
  - symbol: K  # 29
    coordinates: [  0.125000000000001,  0.958333333333333,  0.959545192990515 ]
    mass: 39.098300
    reduced_to: 1
  - symbol: K  # 30
    coordinates: [  0.250000000000001,  0.083333333333333,  0.959545192990515 ]
    mass: 39.098300
    reduced_to: 1
  - symbol: K  # 31
    coordinates: [  0.375000000000001,  0.208333333333333,  0.959545192990515 ]
    mass: 39.098300
    reduced_to: 1
  - symbol: K  # 32
    coordinates: [  0.500000000000001,  0.333333333333333,  0.959545192990515 ]
    mass: 39.098300
    reduced_to: 1
  - symbol: K  # 33
    coordinates: [  0.999999999999999,  0.166666666666667,  0.209545192990515 ]
    mass: 39.098300
    reduced_to: 33
  - symbol: K  # 34
    coordinates: [  0.124999999999999,  0.291666666666667,  0.209545192990515 ]
    mass: 39.098300
    reduced_to: 33
  - symbol: K  # 35
    coordinates: [  0.249999999999999,  0.416666666666667,  0.209545192990515 ]
    mass: 39.098300
    reduced_to: 33
  - symbol: K  # 36
    coordinates: [  0.374999999999999,  0.541666666666667,  0.209545192990515 ]
    mass: 39.098300
    reduced_to: 33
  - symbol: K  # 37
    coordinates: [  0.499999999999999,  0.666666666666667,  0.209545192990515 ]
    mass: 39.098300
    reduced_to: 33
  - symbol: K  # 38
    coordinates: [  0.624999999999999,  0.791666666666667,  0.209545192990515 ]
    mass: 39.098300
    reduced_to: 33
  - symbol: K  # 39
    coordinates: [  0.749999999999999,  0.916666666666667,  0.209545192990515 ]
    mass: 39.098300
    reduced_to: 33
  - symbol: K  # 40
    coordinates: [  0.874999999999999,  0.041666666666667,  0.209545192990515 ]
    mass: 39.098300
    reduced_to: 33
  - symbol: K  # 41
    coordinates: [  0.749999999999999,  0.416666666666667,  0.209545192990515 ]
    mass: 39.098300
    reduced_to: 33
  - symbol: K  # 42
    coordinates: [  0.874999999999999,  0.541666666666667,  0.209545192990515 ]
    mass: 39.098300
    reduced_to: 33
  - symbol: K  # 43
    coordinates: [  0.999999999999999,  0.666666666666667,  0.209545192990515 ]
    mass: 39.098300
    reduced_to: 33
  - symbol: K  # 44
    coordinates: [  0.124999999999999,  0.791666666666667,  0.209545192990515 ]
    mass: 39.098300
    reduced_to: 33
  - symbol: K  # 45
    coordinates: [  0.249999999999999,  0.916666666666667,  0.209545192990515 ]
    mass: 39.098300
    reduced_to: 33
  - symbol: K  # 46
    coordinates: [  0.374999999999999,  0.041666666666667,  0.209545192990515 ]
    mass: 39.098300
    reduced_to: 33
  - symbol: K  # 47
    coordinates: [  0.499999999999999,  0.166666666666667,  0.209545192990515 ]
    mass: 39.098300
    reduced_to: 33
  - symbol: K  # 48
    coordinates: [  0.624999999999999,  0.291666666666667,  0.209545192990515 ]
    mass: 39.098300
    reduced_to: 33
  - symbol: K  # 49
    coordinates: [  0.999999999999999,  0.166666666666667,  0.709545192990515 ]
    mass: 39.098300
    reduced_to: 33
  - symbol: K  # 50
    coordinates: [  0.124999999999999,  0.291666666666667,  0.709545192990515 ]
    mass: 39.098300
    reduced_to: 33
  - symbol: K  # 51
    coordinates: [  0.249999999999999,  0.416666666666667,  0.709545192990515 ]
    mass: 39.098300
    reduced_to: 33
  - symbol: K  # 52
    coordinates: [  0.374999999999999,  0.541666666666667,  0.709545192990515 ]
    mass: 39.098300
    reduced_to: 33
  - symbol: K  # 53
    coordinates: [  0.499999999999999,  0.666666666666667,  0.709545192990515 ]
    mass: 39.098300
    reduced_to: 33
  - symbol: K  # 54
    coordinates: [  0.624999999999999,  0.791666666666667,  0.709545192990515 ]
    mass: 39.098300
    reduced_to: 33
  - symbol: K  # 55
    coordinates: [  0.749999999999999,  0.916666666666667,  0.709545192990515 ]
    mass: 39.098300
    reduced_to: 33
  - symbol: K  # 56
    coordinates: [  0.874999999999999,  0.041666666666667,  0.709545192990515 ]
    mass: 39.098300
    reduced_to: 33
  - symbol: K  # 57
    coordinates: [  0.749999999999999,  0.416666666666667,  0.709545192990515 ]
    mass: 39.098300
    reduced_to: 33
  - symbol: K  # 58
    coordinates: [  0.874999999999999,  0.541666666666667,  0.709545192990515 ]
    mass: 39.098300
    reduced_to: 33
  - symbol: K  # 59
    coordinates: [  0.999999999999999,  0.666666666666667,  0.709545192990515 ]
    mass: 39.098300
    reduced_to: 33
  - symbol: K  # 60
    coordinates: [  0.124999999999999,  0.791666666666667,  0.709545192990515 ]
    mass: 39.098300
    reduced_to: 33
  - symbol: K  # 61
    coordinates: [  0.249999999999999,  0.916666666666667,  0.709545192990515 ]
    mass: 39.098300
    reduced_to: 33
  - symbol: K  # 62
    coordinates: [  0.374999999999999,  0.041666666666667,  0.709545192990515 ]
    mass: 39.098300
    reduced_to: 33
  - symbol: K  # 63
    coordinates: [  0.499999999999999,  0.166666666666667,  0.709545192990515 ]
    mass: 39.098300
    reduced_to: 33
  - symbol: K  # 64
    coordinates: [  0.624999999999999,  0.291666666666667,  0.709545192990515 ]
    mass: 39.098300
    reduced_to: 33
  - symbol: K  # 65
    coordinates: [  0.000000000000000,  0.000000000000000,  0.125000000000000 ]
    mass: 39.098300
    reduced_to: 65
  - symbol: K  # 66
    coordinates: [  0.125000000000000,  0.125000000000000,  0.125000000000000 ]
    mass: 39.098300
    reduced_to: 65
  - symbol: K  # 67
    coordinates: [  0.250000000000000,  0.250000000000000,  0.125000000000000 ]
    mass: 39.098300
    reduced_to: 65
  - symbol: K  # 68
    coordinates: [  0.375000000000000,  0.375000000000000,  0.125000000000000 ]
    mass: 39.098300
    reduced_to: 65
  - symbol: K  # 69
    coordinates: [  0.500000000000000,  0.500000000000000,  0.125000000000000 ]
    mass: 39.098300
    reduced_to: 65
  - symbol: K  # 70
    coordinates: [  0.625000000000000,  0.625000000000000,  0.125000000000000 ]
    mass: 39.098300
    reduced_to: 65
  - symbol: K  # 71
    coordinates: [  0.750000000000000,  0.750000000000000,  0.125000000000000 ]
    mass: 39.098300
    reduced_to: 65
  - symbol: K  # 72
    coordinates: [  0.875000000000000,  0.875000000000000,  0.125000000000000 ]
    mass: 39.098300
    reduced_to: 65
  - symbol: K  # 73
    coordinates: [  0.750000000000000,  0.250000000000000,  0.125000000000000 ]
    mass: 39.098300
    reduced_to: 65
  - symbol: K  # 74
    coordinates: [  0.875000000000000,  0.375000000000000,  0.125000000000000 ]
    mass: 39.098300
    reduced_to: 65
  - symbol: K  # 75
    coordinates: [  0.000000000000000,  0.500000000000000,  0.125000000000000 ]
    mass: 39.098300
    reduced_to: 65
  - symbol: K  # 76
    coordinates: [  0.125000000000000,  0.625000000000000,  0.125000000000000 ]
    mass: 39.098300
    reduced_to: 65
  - symbol: K  # 77
    coordinates: [  0.250000000000000,  0.750000000000000,  0.125000000000000 ]
    mass: 39.098300
    reduced_to: 65
  - symbol: K  # 78
    coordinates: [  0.375000000000000,  0.875000000000000,  0.125000000000000 ]
    mass: 39.098300
    reduced_to: 65
  - symbol: K  # 79
    coordinates: [  0.500000000000000,  0.000000000000000,  0.125000000000000 ]
    mass: 39.098300
    reduced_to: 65
  - symbol: K  # 80
    coordinates: [  0.625000000000000,  0.125000000000000,  0.125000000000000 ]
    mass: 39.098300
    reduced_to: 65
  - symbol: K  # 81
    coordinates: [  0.000000000000000,  0.000000000000000,  0.625000000000000 ]
    mass: 39.098300
    reduced_to: 65
  - symbol: K  # 82
    coordinates: [  0.125000000000000,  0.125000000000000,  0.625000000000000 ]
    mass: 39.098300
    reduced_to: 65
  - symbol: K  # 83
    coordinates: [  0.250000000000000,  0.250000000000000,  0.625000000000000 ]
    mass: 39.098300
    reduced_to: 65
  - symbol: K  # 84
    coordinates: [  0.375000000000000,  0.375000000000000,  0.625000000000000 ]
    mass: 39.098300
    reduced_to: 65
  - symbol: K  # 85
    coordinates: [  0.500000000000000,  0.500000000000000,  0.625000000000000 ]
    mass: 39.098300
    reduced_to: 65
  - symbol: K  # 86
    coordinates: [  0.625000000000000,  0.625000000000000,  0.625000000000000 ]
    mass: 39.098300
    reduced_to: 65
  - symbol: K  # 87
    coordinates: [  0.750000000000000,  0.750000000000000,  0.625000000000000 ]
    mass: 39.098300
    reduced_to: 65
  - symbol: K  # 88
    coordinates: [  0.875000000000000,  0.875000000000000,  0.625000000000000 ]
    mass: 39.098300
    reduced_to: 65
  - symbol: K  # 89
    coordinates: [  0.750000000000000,  0.250000000000000,  0.625000000000000 ]
    mass: 39.098300
    reduced_to: 65
  - symbol: K  # 90
    coordinates: [  0.875000000000000,  0.375000000000000,  0.625000000000000 ]
    mass: 39.098300
    reduced_to: 65
  - symbol: K  # 91
    coordinates: [  0.000000000000000,  0.500000000000000,  0.625000000000000 ]
    mass: 39.098300
    reduced_to: 65
  - symbol: K  # 92
    coordinates: [  0.125000000000000,  0.625000000000000,  0.625000000000000 ]
    mass: 39.098300
    reduced_to: 65
  - symbol: K  # 93
    coordinates: [  0.250000000000000,  0.750000000000000,  0.625000000000000 ]
    mass: 39.098300
    reduced_to: 65
  - symbol: K  # 94
    coordinates: [  0.375000000000000,  0.875000000000000,  0.625000000000000 ]
    mass: 39.098300
    reduced_to: 65
  - symbol: K  # 95
    coordinates: [  0.500000000000000,  0.000000000000000,  0.625000000000000 ]
    mass: 39.098300
    reduced_to: 65
  - symbol: K  # 96
    coordinates: [  0.625000000000000,  0.125000000000000,  0.625000000000000 ]
    mass: 39.098300
    reduced_to: 65
  - symbol: K  # 97
    coordinates: [  0.000000000000000,  0.000000000000000,  0.375000000000000 ]
    mass: 39.098300
    reduced_to: 97
  - symbol: K  # 98
    coordinates: [  0.125000000000000,  0.125000000000000,  0.375000000000000 ]
    mass: 39.098300
    reduced_to: 97
  - symbol: K  # 99
    coordinates: [  0.250000000000000,  0.250000000000000,  0.375000000000000 ]
    mass: 39.098300
    reduced_to: 97
  - symbol: K  # 100
    coordinates: [  0.375000000000000,  0.375000000000000,  0.375000000000000 ]
    mass: 39.098300
    reduced_to: 97
  - symbol: K  # 101
    coordinates: [  0.500000000000000,  0.500000000000000,  0.375000000000000 ]
    mass: 39.098300
    reduced_to: 97
  - symbol: K  # 102
    coordinates: [  0.625000000000000,  0.625000000000000,  0.375000000000000 ]
    mass: 39.098300
    reduced_to: 97
  - symbol: K  # 103
    coordinates: [  0.750000000000000,  0.750000000000000,  0.375000000000000 ]
    mass: 39.098300
    reduced_to: 97
  - symbol: K  # 104
    coordinates: [  0.875000000000000,  0.875000000000000,  0.375000000000000 ]
    mass: 39.098300
    reduced_to: 97
  - symbol: K  # 105
    coordinates: [  0.750000000000000,  0.250000000000000,  0.375000000000000 ]
    mass: 39.098300
    reduced_to: 97
  - symbol: K  # 106
    coordinates: [  0.875000000000000,  0.375000000000000,  0.375000000000000 ]
    mass: 39.098300
    reduced_to: 97
  - symbol: K  # 107
    coordinates: [  0.000000000000000,  0.500000000000000,  0.375000000000000 ]
    mass: 39.098300
    reduced_to: 97
  - symbol: K  # 108
    coordinates: [  0.125000000000000,  0.625000000000000,  0.375000000000000 ]
    mass: 39.098300
    reduced_to: 97
  - symbol: K  # 109
    coordinates: [  0.250000000000000,  0.750000000000000,  0.375000000000000 ]
    mass: 39.098300
    reduced_to: 97
  - symbol: K  # 110
    coordinates: [  0.375000000000000,  0.875000000000000,  0.375000000000000 ]
    mass: 39.098300
    reduced_to: 97
  - symbol: K  # 111
    coordinates: [  0.500000000000000,  0.000000000000000,  0.375000000000000 ]
    mass: 39.098300
    reduced_to: 97
  - symbol: K  # 112
    coordinates: [  0.625000000000000,  0.125000000000000,  0.375000000000000 ]
    mass: 39.098300
    reduced_to: 97
  - symbol: K  # 113
    coordinates: [  0.000000000000000,  0.000000000000000,  0.875000000000000 ]
    mass: 39.098300
    reduced_to: 97
  - symbol: K  # 114
    coordinates: [  0.125000000000000,  0.125000000000000,  0.875000000000000 ]
    mass: 39.098300
    reduced_to: 97
  - symbol: K  # 115
    coordinates: [  0.250000000000000,  0.250000000000000,  0.875000000000000 ]
    mass: 39.098300
    reduced_to: 97
  - symbol: K  # 116
    coordinates: [  0.375000000000000,  0.375000000000000,  0.875000000000000 ]
    mass: 39.098300
    reduced_to: 97
  - symbol: K  # 117
    coordinates: [  0.500000000000000,  0.500000000000000,  0.875000000000000 ]
    mass: 39.098300
    reduced_to: 97
  - symbol: K  # 118
    coordinates: [  0.625000000000000,  0.625000000000000,  0.875000000000000 ]
    mass: 39.098300
    reduced_to: 97
  - symbol: K  # 119
    coordinates: [  0.750000000000000,  0.750000000000000,  0.875000000000000 ]
    mass: 39.098300
    reduced_to: 97
  - symbol: K  # 120
    coordinates: [  0.875000000000000,  0.875000000000000,  0.875000000000000 ]
    mass: 39.098300
    reduced_to: 97
  - symbol: K  # 121
    coordinates: [  0.750000000000000,  0.250000000000000,  0.875000000000000 ]
    mass: 39.098300
    reduced_to: 97
  - symbol: K  # 122
    coordinates: [  0.875000000000000,  0.375000000000000,  0.875000000000000 ]
    mass: 39.098300
    reduced_to: 97
  - symbol: K  # 123
    coordinates: [  0.000000000000000,  0.500000000000000,  0.875000000000000 ]
    mass: 39.098300
    reduced_to: 97
  - symbol: K  # 124
    coordinates: [  0.125000000000000,  0.625000000000000,  0.875000000000000 ]
    mass: 39.098300
    reduced_to: 97
  - symbol: K  # 125
    coordinates: [  0.250000000000000,  0.750000000000000,  0.875000000000000 ]
    mass: 39.098300
    reduced_to: 97
  - symbol: K  # 126
    coordinates: [  0.375000000000000,  0.875000000000000,  0.875000000000000 ]
    mass: 39.098300
    reduced_to: 97
  - symbol: K  # 127
    coordinates: [  0.500000000000000,  0.000000000000000,  0.875000000000000 ]
    mass: 39.098300
    reduced_to: 97
  - symbol: K  # 128
    coordinates: [  0.625000000000000,  0.125000000000000,  0.875000000000000 ]
    mass: 39.098300
    reduced_to: 97
  - symbol: K  # 129
    coordinates: [  0.875000000000001,  0.208333333333333,  0.290454807009485 ]
    mass: 39.098300
    reduced_to: 129
  - symbol: K  # 130
    coordinates: [  0.000000000000001,  0.333333333333333,  0.290454807009485 ]
    mass: 39.098300
    reduced_to: 129
  - symbol: K  # 131
    coordinates: [  0.125000000000001,  0.458333333333333,  0.290454807009485 ]
    mass: 39.098300
    reduced_to: 129
  - symbol: K  # 132
    coordinates: [  0.250000000000001,  0.583333333333333,  0.290454807009485 ]
    mass: 39.098300
    reduced_to: 129
  - symbol: K  # 133
    coordinates: [  0.375000000000001,  0.708333333333333,  0.290454807009485 ]
    mass: 39.098300
    reduced_to: 129
  - symbol: K  # 134
    coordinates: [  0.500000000000001,  0.833333333333333,  0.290454807009485 ]
    mass: 39.098300
    reduced_to: 129
  - symbol: K  # 135
    coordinates: [  0.625000000000001,  0.958333333333333,  0.290454807009485 ]
    mass: 39.098300
    reduced_to: 129
  - symbol: K  # 136
    coordinates: [  0.750000000000001,  0.083333333333333,  0.290454807009485 ]
    mass: 39.098300
    reduced_to: 129
  - symbol: K  # 137
    coordinates: [  0.625000000000001,  0.458333333333333,  0.290454807009485 ]
    mass: 39.098300
    reduced_to: 129
  - symbol: K  # 138
    coordinates: [  0.750000000000001,  0.583333333333333,  0.290454807009485 ]
    mass: 39.098300
    reduced_to: 129
  - symbol: K  # 139
    coordinates: [  0.875000000000001,  0.708333333333333,  0.290454807009485 ]
    mass: 39.098300
    reduced_to: 129
  - symbol: K  # 140
    coordinates: [  0.000000000000001,  0.833333333333333,  0.290454807009485 ]
    mass: 39.098300
    reduced_to: 129
  - symbol: K  # 141
    coordinates: [  0.125000000000001,  0.958333333333333,  0.290454807009485 ]
    mass: 39.098300
    reduced_to: 129
  - symbol: K  # 142
    coordinates: [  0.250000000000001,  0.083333333333333,  0.290454807009485 ]
    mass: 39.098300
    reduced_to: 129
  - symbol: K  # 143
    coordinates: [  0.375000000000001,  0.208333333333333,  0.290454807009485 ]
    mass: 39.098300
    reduced_to: 129
  - symbol: K  # 144
    coordinates: [  0.500000000000001,  0.333333333333333,  0.290454807009485 ]
    mass: 39.098300
    reduced_to: 129
  - symbol: K  # 145
    coordinates: [  0.875000000000001,  0.208333333333333,  0.790454807009485 ]
    mass: 39.098300
    reduced_to: 129
  - symbol: K  # 146
    coordinates: [  0.000000000000001,  0.333333333333333,  0.790454807009485 ]
    mass: 39.098300
    reduced_to: 129
  - symbol: K  # 147
    coordinates: [  0.125000000000001,  0.458333333333333,  0.790454807009485 ]
    mass: 39.098300
    reduced_to: 129
  - symbol: K  # 148
    coordinates: [  0.250000000000001,  0.583333333333333,  0.790454807009485 ]
    mass: 39.098300
    reduced_to: 129
  - symbol: K  # 149
    coordinates: [  0.375000000000001,  0.708333333333333,  0.790454807009485 ]
    mass: 39.098300
    reduced_to: 129
  - symbol: K  # 150
    coordinates: [  0.500000000000001,  0.833333333333333,  0.790454807009485 ]
    mass: 39.098300
    reduced_to: 129
  - symbol: K  # 151
    coordinates: [  0.625000000000001,  0.958333333333333,  0.790454807009485 ]
    mass: 39.098300
    reduced_to: 129
  - symbol: K  # 152
    coordinates: [  0.750000000000001,  0.083333333333333,  0.790454807009485 ]
    mass: 39.098300
    reduced_to: 129
  - symbol: K  # 153
    coordinates: [  0.625000000000001,  0.458333333333333,  0.790454807009485 ]
    mass: 39.098300
    reduced_to: 129
  - symbol: K  # 154
    coordinates: [  0.750000000000001,  0.583333333333333,  0.790454807009485 ]
    mass: 39.098300
    reduced_to: 129
  - symbol: K  # 155
    coordinates: [  0.875000000000001,  0.708333333333333,  0.790454807009485 ]
    mass: 39.098300
    reduced_to: 129
  - symbol: K  # 156
    coordinates: [  0.000000000000001,  0.833333333333333,  0.790454807009485 ]
    mass: 39.098300
    reduced_to: 129
  - symbol: K  # 157
    coordinates: [  0.125000000000001,  0.958333333333333,  0.790454807009485 ]
    mass: 39.098300
    reduced_to: 129
  - symbol: K  # 158
    coordinates: [  0.250000000000001,  0.083333333333333,  0.790454807009485 ]
    mass: 39.098300
    reduced_to: 129
  - symbol: K  # 159
    coordinates: [  0.375000000000001,  0.208333333333333,  0.790454807009485 ]
    mass: 39.098300
    reduced_to: 129
  - symbol: K  # 160
    coordinates: [  0.500000000000001,  0.333333333333333,  0.790454807009485 ]
    mass: 39.098300
    reduced_to: 129
  - symbol: K  # 161
    coordinates: [  0.999999999999999,  0.166666666666667,  0.040454807009485 ]
    mass: 39.098300
    reduced_to: 161
  - symbol: K  # 162
    coordinates: [  0.124999999999999,  0.291666666666667,  0.040454807009485 ]
    mass: 39.098300
    reduced_to: 161
  - symbol: K  # 163
    coordinates: [  0.249999999999999,  0.416666666666667,  0.040454807009485 ]
    mass: 39.098300
    reduced_to: 161
  - symbol: K  # 164
    coordinates: [  0.374999999999999,  0.541666666666667,  0.040454807009485 ]
    mass: 39.098300
    reduced_to: 161
  - symbol: K  # 165
    coordinates: [  0.499999999999999,  0.666666666666667,  0.040454807009485 ]
    mass: 39.098300
    reduced_to: 161
  - symbol: K  # 166
    coordinates: [  0.624999999999999,  0.791666666666667,  0.040454807009485 ]
    mass: 39.098300
    reduced_to: 161
  - symbol: K  # 167
    coordinates: [  0.749999999999999,  0.916666666666667,  0.040454807009485 ]
    mass: 39.098300
    reduced_to: 161
  - symbol: K  # 168
    coordinates: [  0.874999999999999,  0.041666666666667,  0.040454807009485 ]
    mass: 39.098300
    reduced_to: 161
  - symbol: K  # 169
    coordinates: [  0.749999999999999,  0.416666666666667,  0.040454807009485 ]
    mass: 39.098300
    reduced_to: 161
  - symbol: K  # 170
    coordinates: [  0.874999999999999,  0.541666666666667,  0.040454807009485 ]
    mass: 39.098300
    reduced_to: 161
  - symbol: K  # 171
    coordinates: [  0.999999999999999,  0.666666666666667,  0.040454807009485 ]
    mass: 39.098300
    reduced_to: 161
  - symbol: K  # 172
    coordinates: [  0.124999999999999,  0.791666666666667,  0.040454807009485 ]
    mass: 39.098300
    reduced_to: 161
  - symbol: K  # 173
    coordinates: [  0.249999999999999,  0.916666666666667,  0.040454807009485 ]
    mass: 39.098300
    reduced_to: 161
  - symbol: K  # 174
    coordinates: [  0.374999999999999,  0.041666666666667,  0.040454807009485 ]
    mass: 39.098300
    reduced_to: 161
  - symbol: K  # 175
    coordinates: [  0.499999999999999,  0.166666666666667,  0.040454807009485 ]
    mass: 39.098300
    reduced_to: 161
  - symbol: K  # 176
    coordinates: [  0.624999999999999,  0.291666666666667,  0.040454807009485 ]
    mass: 39.098300
    reduced_to: 161
  - symbol: K  # 177
    coordinates: [  0.999999999999999,  0.166666666666667,  0.540454807009485 ]
    mass: 39.098300
    reduced_to: 161
  - symbol: K  # 178
    coordinates: [  0.124999999999999,  0.291666666666667,  0.540454807009485 ]
    mass: 39.098300
    reduced_to: 161
  - symbol: K  # 179
    coordinates: [  0.249999999999999,  0.416666666666667,  0.540454807009485 ]
    mass: 39.098300
    reduced_to: 161
  - symbol: K  # 180
    coordinates: [  0.374999999999999,  0.541666666666667,  0.540454807009485 ]
    mass: 39.098300
    reduced_to: 161
  - symbol: K  # 181
    coordinates: [  0.499999999999999,  0.666666666666667,  0.540454807009485 ]
    mass: 39.098300
    reduced_to: 161
  - symbol: K  # 182
    coordinates: [  0.624999999999999,  0.791666666666667,  0.540454807009485 ]
    mass: 39.098300
    reduced_to: 161
  - symbol: K  # 183
    coordinates: [  0.749999999999999,  0.916666666666667,  0.540454807009485 ]
    mass: 39.098300
    reduced_to: 161
  - symbol: K  # 184
    coordinates: [  0.874999999999999,  0.041666666666667,  0.540454807009485 ]
    mass: 39.098300
    reduced_to: 161
  - symbol: K  # 185
    coordinates: [  0.749999999999999,  0.416666666666667,  0.540454807009485 ]
    mass: 39.098300
    reduced_to: 161
  - symbol: K  # 186
    coordinates: [  0.874999999999999,  0.541666666666667,  0.540454807009485 ]
    mass: 39.098300
    reduced_to: 161
  - symbol: K  # 187
    coordinates: [  0.999999999999999,  0.666666666666667,  0.540454807009485 ]
    mass: 39.098300
    reduced_to: 161
  - symbol: K  # 188
    coordinates: [  0.124999999999999,  0.791666666666667,  0.540454807009485 ]
    mass: 39.098300
    reduced_to: 161
  - symbol: K  # 189
    coordinates: [  0.249999999999999,  0.916666666666667,  0.540454807009485 ]
    mass: 39.098300